/*--------------------------------*- C++ -*----------------------------------*\
  =========                 |
  \\      /  F ield         | OpenFOAM: The Open Source CFD Toolbox
   \\    /   O peration     | Website:  https://openfoam.org
    \\  /    A nd           | Version:  7
     \\/     M anipulation  |
\*---------------------------------------------------------------------------*/
FoamFile
{
    version     2.0;
    format      ascii;
    class       volVectorField;
    location    "370";
    object      U;
}
// * * * * * * * * * * * * * * * * * * * * * * * * * * * * * * * * * * * * * //

dimensions      [0 1 -1 0 0 0 0];

internalField   nonuniform List<vector> 
24866
(
(120.00024 -0.00061394463 -0.00074420881)
(120.00037 -0.00038779238 -0.000562087)
(120.00034 -0.00044980786 -0.00046828992)
(120.00013 -0.00023909293 -0.00024054595)
(120.00003 -6.6810597e-05 -7.0594717e-05)
(120.00003 -6.1770711e-05 -8.4809592e-05)
(120.00002 -4.9251731e-05 -9.641675e-05)
(120.00003 -4.9122639e-05 -9.0253382e-05)
(120.00003 -2.9864136e-05 -9.731255e-05)
(120.00003 -2.0778923e-05 -0.00010999175)
(120.00003 -6.8714286e-06 -0.00010870215)
(120.00003 5.5523465e-06 -0.00010865949)
(120.00003 1.9651107e-05 -0.0001098676)
(120.00003 2.9198119e-05 -9.7137369e-05)
(120.00003 4.8857354e-05 -9.0352369e-05)
(120.00002 4.945763e-05 -9.5368944e-05)
(120.00003 6.3513669e-05 -8.4106898e-05)
(120.00003 6.8423524e-05 -6.8334556e-05)
(120.00003 7.3986753e-05 -6.671968e-05)
(120.00003 9.2183685e-05 -5.7377777e-05)
(120.00003 0.00011111909 -5.450661e-05)
(120.00004 0.0001245207 -4.0937504e-05)
(120.00003 0.00011146874 -2.7088403e-05)
(120.00005 9.8065102e-05 -4.3093502e-05)
(120.00003 0.00012428019 -1.2537262e-05)
(120.00003 0.0001342076 1.4044809e-06)
(120.00003 0.00011603104 1.6044115e-05)
(120.00005 9.0622695e-05 4.5966942e-05)
(120.00005 0.00010565842 2.8146493e-05)
(120.00003 0.00010712113 5.5279198e-05)
(120.00003 8.6051895e-05 5.5838004e-05)
(120.00003 7.1361003e-05 6.6991345e-05)
(120.00003 6.8616882e-05 7.0093844e-05)
(120.00003 5.7561327e-05 8.4841492e-05)
(120.00003 5.7090619e-05 0.00010568988)
(120.00005 2.9600507e-05 0.00010443398)
(120.00005 4.7638757e-05 8.9897293e-05)
(120.00003 1.7823224e-05 0.00011506891)
(120.00003 3.1557981e-06 0.00013346097)
(120.00003 -1.0618084e-05 0.00012361501)
(120.00005 -4.1630322e-05 9.7627215e-05)
(120.00003 -2.6236332e-05 0.0001110662)
(120.00004 -4.0097182e-05 0.00012395036)
(120.00003 -5.3778638e-05 0.00011053948)
(120.00003 -5.685772e-05 9.1486493e-05)
(120.00003 -6.6418992e-05 7.346904e-05)
(120.00003 -6.7956493e-05 6.7619858e-05)
(120.00003 -8.3931171e-05 6.2758491e-05)
(120.00002 -9.5067548e-05 4.851387e-05)
(120.00003 -9.0309129e-05 4.8055189e-05)
(120.00003 -9.6668845e-05 2.8216617e-05)
(120.00003 -0.00010956562 1.8500862e-05)
(120.00003 -0.00010830905 4.4681249e-06)
(120.00003 -0.00010816493 -8.0844656e-06)
(120.00003 -0.00010907504 -2.2133661e-05)
(120.00003 -9.6726338e-05 -3.1310751e-05)
(120.00003 -8.94262e-05 -5.0538508e-05)
(120.00002 -9.5388302e-05 -5.0773258e-05)
(120.00003 -8.3478778e-05 -6.3129256e-05)
(120.00003 -6.9616056e-05 -6.844065e-05)
(120.00003 -0.0001242 -9.7797915e-05)
(120.00001 -0.0001256216 -0.00012691803)
(120.00003 -9.6563459e-05 -0.00012551093)
(120.00003 -0.00010026158 -0.00011949913)
(120.00002 -0.00010380934 -0.00016076247)
(120.00002 -7.6602011e-05 -0.00017841841)
(120.00002 -6.5268105e-05 -0.00016227109)
(120.00002 -5.5533173e-05 -0.00014657705)
(120.00001 -4.1705539e-05 -0.00018506478)
(120.00001 -1.4851801e-05 -0.00019591481)
(120.00001 1.3470375e-05 -0.00019589778)
(120.00001 4.0624137e-05 -0.00018499995)
(120.00002 5.4939291e-05 -0.00014643316)
(120.00002 6.5009002e-05 -0.00016218397)
(120.00002 7.6371988e-05 -0.00017810393)
(120.00002 0.00010463117 -0.00016001392)
(120.00003 0.00010196387 -0.00011880753)
(120.00003 9.8024118e-05 -0.0001236172)
(120.00001 0.00012855365 -0.00012508776)
(120.00003 0.00012876108 -9.8299006e-05)
(120.00004 0.00012705022 -0.00010263469)
(120.00001 0.00017747475 -0.00010916398)
(120.00002 0.00020770119 -8.9864125e-05)
(120.00002 0.00021448829 -6.6522525e-05)
(120.00002 0.00021240576 -1.4022576e-05)
(120.00001 0.00019242385 -2.840729e-05)
(120.00002 0.00019140472 -1.3778004e-05)
(120 0.00019852163 9.5763624e-06)
(120.00002 0.00017611087 3.1740256e-05)
(120.00001 0.00017708078 4.8719707e-05)
(120.00002 0.00019581289 4.4393851e-05)
(120.00001 0.00022318318 1.5088864e-05)
(120.00001 0.00025649414 2.367543e-05)
(120.00001 0.0002563962 -3.2443983e-05)
(120.00001 0.00023961241 -8.610329e-05)
(120.00001 0.00021549678 -0.0001239991)
(120.00001 0.0001724815 -0.00013421479)
(120.00001 0.00017889848 -0.00017751743)
(120.00001 0.00013526623 -0.00016797948)
(120.00001 0.00011987006 -0.00021465492)
(120.00001 0.00015400026 -0.00021622577)
(120 0.00018878992 -0.00019027183)
(120.00001 0.00021760068 -0.00015587495)
(120.00001 0.0002462958 -0.00010916717)
(120.00001 0.00026222768 -4.1831875e-05)
(120 0.00026183007 3.3349208e-05)
(120.00001 0.0002447593 0.00010248188)
(120.00001 0.00024058427 7.6806032e-05)
(120.00001 0.00021005548 0.00011813175)
(120.00002 0.00018708306 8.029049e-05)
(120.00001 0.00017033536 0.00010528737)
(120.00003 0.0001198069 9.786064e-05)
(120.00003 0.00012494345 9.6511661e-05)
(120.00001 0.00012553701 0.00012406146)
(120.00001 0.00016910013 0.00013151471)
(120.00001 0.00017727461 0.00017562625)
(120.00001 0.00021535922 0.00015111719)
(120 0.00018781029 0.00018605223)
(120 0.00021512029 0.00012647219)
(119.99999 0.00023060536 4.2413686e-05)
(119.99999 0.00023105182 -5.0442468e-05)
(120 0.00021562695 -0.00013263384)
(119.99998 0.0001483824 -0.00015149625)
(120 0.00012947376 -0.00021727109)
(120.00001 0.00010599247 -0.00024763456)
(120.00001 8.076553e-05 -0.00024677757)
(120.00001 5.7484026e-05 -0.00021420764)
(120.00002 2.2317841e-05 -0.00023418577)
(120.00001 2.8568373e-05 -0.00026511535)
(120 3.7187527e-05 -0.00026507267)
(119.99999 4.5756746e-05 -0.00023282345)
(119.99997 5.2516439e-05 -0.00016246489)
(119.99996 5.6402083e-05 -6.1033972e-05)
(119.99997 0.0001592731 -5.7079206e-05)
(119.99997 0.00015890688 4.9744988e-05)
(119.99998 0.00014761815 0.0001457804)
(120 0.00012826396 0.0002133329)
(120.00001 0.0001042179 0.00024308963)
(120.00001 0.00015284365 0.00021369436)
(120.00001 0.00011980685 0.00020853737)
(120.00001 0.00013317716 0.0001675167)
(120.00002 0.00010707409 0.00016899336)
(120.00003 9.951832e-05 0.00011858548)
(120.00003 9.7776973e-05 0.00012345118)
(120.00003 0.00018743359 0.00025459547)
(120.00003 0.00020990529 0.00023903466)
(120.00006 0.00029586017 0.0003580409)
(120.00014 0.00019113228 0.0002891073)
(120.00012 0.00024015898 0.00023723267)
(120.00012 0.0002413561 0.00023555497)
(120.00014 0.00029270585 0.00018579461)
(120.00012 0.00032848076 0.00014788858)
(120.00012 0.00038642259 0.00016152837)
(120.00004 0.00022769762 6.988205e-05)
(120.00005 0.00019426091 8.9290171e-05)
(120.00012 0.00039793785 0.00011944778)
(120.00012 0.00038875715 7.3165666e-05)
(120.00012 0.00039898239 6.9648937e-06)
(120.00013 0.00041467969 -5.7047341e-05)
(120.00011 0.00043741683 -0.00011846561)
(120.00015 0.00052567926 -0.00013172382)
(120.00014 0.00044428307 -0.00019473114)
(120.00013 0.00034352135 -0.00014654863)
(120.00015 0.00030622523 -0.0001911707)
(120.00013 0.0002504773 -0.00023745109)
(120.00013 0.00024586064 -0.00023463108)
(120.00014 0.00020770814 -0.00028269383)
(120.00012 0.00015868138 -0.00029528173)
(120.00013 0.0001700809 -0.00031575884)
(120.00014 9.1960116e-05 -0.00034487656)
(120.00013 6.730635e-05 -0.0003560845)
(120.00014 1.9428145e-05 -0.00037447399)
(120.00014 -2.3394409e-05 -0.00037458679)
(120.00013 -7.0517807e-05 -0.00035621146)
(120.00014 -9.4051906e-05 -0.00034546411)
(120.00014 -0.00017107238 -0.00031610421)
(120.00012 -0.00015758067 -0.0002969181)
(120.00014 -0.00020321177 -0.00028562938)
(120.00007 -0.00030059538 -0.00035927133)
(120.00007 -0.00027531273 -0.00034010522)
(120.00003 -0.00018660822 -0.00026016671)
(120.00003 -0.00021153657 -0.00024170053)
(120.00006 -0.00036176982 -0.00038779798)
(120.00013 -0.00035491893 -0.00042718639)
(120.00007 -0.00029986994 -0.00039619471)
(120.00005 -0.00036331701 -0.00036698158)
(120.00001 -0.00052270466 -0.00042829455)
(120.00001 -0.00016762946 -0.00013549836)
(120.00001 -0.00017626499 -0.00017781061)
(120.00001 -0.00013396936 -0.00016903319)
(120.00001 -0.0001198663 -0.00021514624)
(120.00001 -8.1516931e-05 -0.00024697319)
(120.00001 -5.8394737e-05 -0.00021431999)
(120.00002 -2.3651184e-05 -0.00023418812)
(120.00001 -2.9829806e-05 -0.00026515391)
(120 -3.8420873e-05 -0.00026508416)
(119.99999 -4.7140366e-05 -0.00023274954)
(119.99997 -5.4300904e-05 -0.00016227989)
(119.99996 -5.8773349e-05 -6.0756371e-05)
(119.99996 -5.9165184e-05 5.4390367e-05)
(119.99996 5.6024753e-05 5.4104024e-05)
(119.99997 5.1570266e-05 0.00015700237)
(119.99999 4.4170642e-05 0.00022878612)
(120 3.5044022e-05 0.00026016234)
(120.00001 2.5286264e-05 0.00025502724)
(120.00001 7.8497957e-05 0.00023909844)
(120.00002 4.6068122e-05 0.00019446116)
(120.00002 8.198133e-05 0.00018579254)
(120.00005 0.00022858483 0.0005377198)
(120.00011 0.00018313824 0.00052039878)
(120.00005 0.00010192625 0.00033468523)
(120.00004 7.3129373e-05 0.00022540634)
(120.00012 0.00016685506 0.00038286882)
(120.00012 0.00015285996 0.00032456238)
(120.00029 0.00031854126 0.00064362077)
(120.00035 0.0003782799 0.00056648614)
(120.00032 0.00045279188 0.00046249286)
(120.00032 0.00046967457 0.00044424535)
(120.00035 0.0005735182 0.00036924015)
(120.0003 0.00065060366 0.00030985444)
(120.0003 0.00066958172 0.00030302845)
(120.00031 0.00072736946 0.00020068851)
(120.00031 0.00073162356 0.00013385839)
(120.0003 0.00076655225 2.1261842e-05)
(120.0003 0.0007692192 -9.0339157e-05)
(120.00028 0.00078582411 -0.0001947237)
(120.00032 0.00084544981 -0.00023652722)
(120.00032 0.00073889373 -0.00034919734)
(120.00031 0.00067972652 -0.00031798998)
(120.00036 0.00059324424 -0.00037354564)
(120.00033 0.00048184637 -0.0004473474)
(120.00034 0.00046131061 -0.00046220107)
(120.00036 0.00039462964 -0.00055812319)
(120.00032 0.00032699446 -0.00061466869)
(120.00035 0.00030739176 -0.00061160674)
(120.00036 0.0001855977 -0.00067952444)
(120.00034 0.00013451155 -0.00071997865)
(120.00035 3.6035875e-05 -0.00076082456)
(120.00035 -4.2884967e-05 -0.0007608072)
(120.00034 -0.00014043968 -0.00071996361)
(120.00036 -0.00018971275 -0.00067982774)
(120.00035 -0.00030916689 -0.00061229086)
(120.00032 -0.00032571839 -0.00061660311)
(120.00065 -0.00059349155 -0.0011040991)
(120.00072 -0.00070635429 -0.0010320651)
(120.00069 -0.0008300652 -0.00086109193)
(120.00069 -0.00085141276 -0.00084164667)
(120.00072 -0.0010220091 -0.00071793417)
(120.00037 -0.00055576314 -0.00039561634)
(120.00014 -0.00028225016 -0.00020778271)
(120.00012 -0.00029339017 -0.00016175323)
(120.00013 -0.00031337543 -0.00017526184)
(120.00014 -0.00034345154 -9.8500587e-05)
(120.00013 -0.00035388283 -7.4646651e-05)
(120.00014 -0.00037284727 -2.7305981e-05)
(120.00014 -0.00037308941 1.5805387e-05)
(120.00013 -0.00035481521 6.3786689e-05)
(120.00013 -0.0003436357 8.8808261e-05)
(120.00013 -0.00031479017 0.00016697149)
(120.00011 -0.00029439321 0.00015591443)
(120.00014 -0.00028156011 0.00020508227)
(120.00013 -0.00023347193 0.0002433592)
(120.00013 -0.00023601393 0.00024846711)
(120.00014 -0.00018946168 0.00030403337)
(120.00012 -0.00014464288 0.00034162342)
(120.00014 -0.0001914764 0.0004418659)
(120.00006 -7.771594e-05 0.00026037849)
(120.00002 -6.3845357e-05 0.00026725879)
(120.00004 -7.2477893e-05 0.00022785373)
(120.00011 -0.00011456173 0.00043493484)
(120.00012 -5.2949275e-05 0.00041171936)
(120.00011 1.1831748e-05 0.00039656284)
(120.00012 7.8191843e-05 0.00038643265)
(120.00012 0.00012469403 0.00039505345)
(120.00005 9.2630934e-05 0.00019255208)
(120.00004 0.00010593298 0.00030495305)
(120.00009 0.00015117707 0.00048280696)
(120.00011 0.00020801287 0.00049892489)
(120.00015 0.00019834469 0.00058960712)
(120.0001 0.00014035303 0.00052467027)
(120.0001 0.00010825074 0.0005574891)
(120.00009 8.7777495e-05 0.0006154199)
(120.00003 4.9100251e-05 0.00042042376)
(120.00001 5.0455246e-05 0.00017579645)
(120.00002 3.3856024e-05 0.00017479918)
(120 1.1199942e-05 0.00019744561)
(120.00001 1.6670589e-05 0.00022192356)
(120.00002 -1.2694212e-05 0.0002113932)
(120.00001 -3.0950105e-05 0.00025498405)
(120.00001 -4.024061e-05 0.00026058923)
(119.99999 -4.8775344e-05 0.00022921602)
(119.99997 -5.5325673e-05 0.00015731213)
(119.99998 -0.00014986031 0.00014640751)
(119.99997 -0.00016071243 5.0466458e-05)
(119.99997 -0.00016040746 -5.6344153e-05)
(119.99998 -0.00014911058 -0.00015105531)
(120 -0.00012995009 -0.00021714089)
(120.00001 -0.00010654857 -0.00024775255)
(120.00001 -0.00015356166 -0.00021658236)
(120 -0.00018829523 -0.00019006726)
(119.99999 -0.00021536489 -0.00013188702)
(119.99999 -0.00023104919 -4.915428e-05)
(119.99999 -0.00023124096 4.3753184e-05)
(119.99999 -0.00021580076 0.00012756615)
(120 -0.00018890569 0.00018704519)
(120 -0.00013110272 0.00021380519)
(120.00001 -0.00010771029 0.00024468224)
(120.00001 -8.4723398e-05 0.00023826271)
(120.00002 -6.5189045e-05 0.00021336738)
(120.00002 -8.869921e-05 0.00020653119)
(120.00001 -0.00012279239 0.00021419378)
(120.00001 -0.00015459073 0.00021605595)
(120.00001 -0.00017643605 0.00017747186)
(120.00001 -0.00021505386 0.00015238828)
(120.00001 -0.00024634407 0.00010424205)
(120 -0.00026368204 3.533641e-05)
(120 -0.00026358369 -4.0296224e-05)
(120.00001 -0.0002461853 -0.00010836051)
(120.00001 -0.00021499693 -0.00015527068)
(120.00001 -0.00021379006 -0.00012147399)
(120.00001 -0.00024562579 -8.3170674e-05)
(120.00001 -0.00026384637 -3.1491072e-05)
(120.00001 -0.00026390396 2.694384e-05)
(120.00001 -0.00024566869 7.9231108e-05)
(120.00001 -0.00021366409 0.00011842778)
(120.00001 -0.00016713986 0.00013399917)
(120.00001 -0.00012437784 0.00012755117)
(120.00001 -0.00013327338 0.00017131288)
(120.00001 -0.00010819494 0.00017638422)
(120.00004 -0.00010189757 0.00012612854)
(120.00003 -9.7701927e-05 0.0001278711)
(120.00003 -0.0001859418 0.00026185867)
(120.00006 -0.00027305248 0.00034291991)
(120.00007 -0.00030103144 0.00037705393)
(120.00003 -0.00021353705 0.00025193771)
(120.00006 -0.00036418805 0.00040659935)
(120.00007 -0.00029919063 0.00039606555)
(120.00012 -0.00035625529 0.00043869393)
(120.00023 -0.00061102162 0.00075933864)
(120.00035 -0.0003704989 0.00058935224)
(120.00031 -0.00031429763 0.00067598598)
(120.00031 -0.00034387098 0.00073496519)
(120.00032 -0.00023093018 0.00084152078)
(120.00015 -0.0001281729 0.00052298584)
(120.00008 -0.00022240606 0.00063674813)
(120.00014 -0.00016821636 0.00056975559)
(120.00013 -0.00013528587 0.00058522546)
(120.00005 -7.6203782e-05 0.00041610872)
(120.00003 -7.4988959e-05 0.0003813847)
(120.0001 -9.0317796e-05 0.0005924703)
(120.00015 -0.00014840781 0.00065535091)
(120.00008 -0.0001166028 0.00054558615)
(120.00019 -0.00024256234 0.0010771746)
(120.00028 -0.00018821923 0.00078175968)
(120.0003 -8.3110274e-05 0.0007650428)
(120.0003 2.9452322e-05 0.00076251576)
(120.0003 0.00014235718 0.00072700085)
(120.00031 0.0002093313 0.00072165014)
(120.0003 0.00031212286 0.00066381039)
(120.0006 0.00055357957 0.0011269409)
(120.00059 0.00058621269 0.0011248469)
(120.00067 0.00070093573 0.0010319527)
(120.00065 0.00083312019 0.0008493621)
(120.00065 0.00086046145 0.000819845)
(120.00067 0.0010434116 0.0006875274)
(120.0006 0.0011355492 0.0005730539)
(120.0006 0.0011356375 0.00053983962)
(120.00063 0.001280599 0.00034129206)
(120.00061 0.0012924911 0.00023035375)
(120.0006 0.0013393782 4.9511735e-05)
(120.00059 0.0013416114 -0.00012523446)
(120.00058 0.0013389441 -0.00030578507)
(120.00062 0.0013649935 -0.00039364795)
(120.0006 0.0011871504 -0.00058284128)
(120.0006 0.0011608786 -0.00059414468)
(120.00069 0.0010634645 -0.00070247457)
(120.00067 0.00087316354 -0.00083054967)
(120.00067 0.0008432399 -0.00085600404)
(120.0007 0.00071324113 -0.0010275098)
(120.00064 0.00059300938 -0.0011021604)
(120.00066 0.0005528835 -0.0010880383)
(120.00069 0.00033850217 -0.0012339126)
(120.00065 0.0002401605 -0.0012687471)
(120.00064 7.0159256e-05 -0.0013121575)
(120.00064 -8.134099e-05 -0.0013126667)
(120.00065 -0.00025003626 -0.0012692101)
(120.00069 -0.0003457991 -0.0012337277)
(120.00067 -0.00055720798 -0.0010887804)
(120.00109 -0.00090092905 -0.0017589424)
(120.00106 -0.00096867616 -0.001767573)
(120.00117 -0.0011614945 -0.0016786825)
(120.00113 -0.0013588744 -0.0014118889)
(120.00113 -0.0013983482 -0.0013747609)
(120.00116 -0.0016645336 -0.0011773075)
(120.00106 -0.0017547186 -0.00098433397)
(120.00065 -0.0010948047 -0.00060485828)
(120.00032 -0.0006104841 -0.00033322216)
(120.00035 -0.00060759214 -0.00031688994)
(120.00036 -0.00067551371 -0.00019731452)
(120.00034 -0.00071613265 -0.00014782408)
(120.00035 -0.00075752691 -5.0137755e-05)
(120.00034 -0.00075767493 2.9188368e-05)
(120.00034 -0.00071715942 0.00012816667)
(120.00035 -0.00067712258 0.0001798601)
(120.00034 -0.00060959539 0.00030169052)
(120.00032 -0.00061281383 0.00032200822)
(120.00036 -0.00055606443 0.00038991972)
(120.00033 -0.00046002516 0.00045692447)
(120.00033 -0.00044482572 0.0004781174)
(120.00066 -0.00082598219 0.0008667321)
(120.00068 -0.00069727671 0.0010568324)
(120.0006 -0.00058796693 0.0011546167)
(120.0006 -0.00057480177 0.0011810703)
(120.00062 -0.00038507564 0.0013586968)
(120.00058 -0.00029579184 0.0013323192)
(120.00059 -0.00011412995 0.0013348679)
(120.0006 6.1643407e-05 0.0013325283)
(120.0006 0.00024308957 0.0012849934)
(120.00063 0.0003545698 0.0012714923)
(120.00103 0.00056873591 0.0020260622)
(120.001 0.00089051257 0.001784084)
(120.00098 0.00096040924 0.0017798513)
(120.00109 0.0011568399 0.0016721606)
(120.00106 0.0013611942 0.0013922935)
(120.00106 0.0014080588 0.001342657)
(120.0011 0.0016886512 0.0011383872)
(120.00098 0.0017949022 0.00094220187)
(120.001 0.001796526 0.00087145881)
(120.00104 0.0020392652 0.00055026837)
(120.00098 0.0020570571 0.00037690971)
(120.00097 0.0021161882 9.2622373e-05)
(120.00096 0.0021188041 -0.00017627487)
(120.00097 0.0020918052 -0.00046107795)
(120.00103 0.0020976266 -0.00061522325)
(120.001 0.0018330303 -0.00092403523)
(120.00099 0.0018137982 -0.00098115392)
(120.00112 0.0017034326 -0.0011681396)
(120.00109 0.0014179396 -0.0013659282)
(120.0011 0.0013700844 -0.0014086713)
(120.00114 0.0011655566 -0.0016752179)
(120.00104 0.00096430075 -0.0017665024)
(120.00108 0.0008920517 -0.0017587932)
(120.00111 0.00056144251 -0.0020005698)
(120.00105 0.00039637868 -0.0020293935)
(120.00103 0.00011963666 -0.0020840877)
(120.00103 -0.00013665567 -0.0020842463)
(120.00105 -0.0004116439 -0.0020293468)
(120.00112 -0.00057369625 -0.0019994185)
(120.00169 -0.00089305548 -0.0030413274)
(120.00166 -0.0013674261 -0.0026817721)
(120.00162 -0.0014848966 -0.0026725785)
(120.00177 -0.0017869339 -0.0025522721)
(120.00172 -0.0020770693 -0.0021664648)
(120.00172 -0.0021485342 -0.0020977097)
(120.00177 -0.0025336223 -0.0018075158)
(120.00161 -0.0026556569 -0.0015053874)
(120.00165 -0.0026673609 -0.0013889584)
(120.00169 -0.0030266791 -0.00091467455)
(120.00111 -0.0019885821 -0.00059007679)
(120.00069 -0.0012263801 -0.00035753365)
(120.00065 -0.0012625722 -0.00026127442)
(120.00064 -0.0013066733 -9.2183698e-05)
(120.00064 -0.0013075008 5.980333e-05)
(120.00065 -0.0012645016 0.00023024076)
(120.00068 -0.0012298112 0.00032922038)
(120.00066 -0.0010844454 0.0005435973)
(120.00063 -0.0010986178 0.00058487236)
(120.0007 -0.0010237321 0.00070550703)
(120.00067 -0.00085202413 0.00083581528)
(120.00109 -0.0014023641 0.0013589016)
(120.00108 -0.001358751 0.0014081039)
(120.0011 -0.0011602183 0.0016933883)
(120.00098 -0.00097197473 0.001804414)
(120.00099 -0.00091265332 0.0018240876)
(120.00101 -0.0006031451 0.0020882512)
(120.00095 -0.0004471141 0.0020820374)
(120.00095 -0.00016084108 0.002108838)
(120.00096 0.00010934867 0.0021059397)
(120.00098 0.00039451032 0.0020460043)
(120.00149 0.00061111015 0.0030797479)
(120.00158 0.00087679161 0.0030529823)
(120.00154 0.0013517657 0.0026921417)
(120.00151 0.0014748453 0.0026722136)
(120.00167 0.0017817349 0.0025358379)
(120.00162 0.0020786464 0.0021367729)
(120.00162 0.002158093 0.00205402)
(120.00167 0.002558116 0.0017573213)
(120.00151 0.0026924365 0.0014507405)
(120.00155 0.0027091728 0.0013265831)
(120.00159 0.003071006 0.00085236349)
(120.0015 0.0030950677 0.0005878913)
(120.00147 0.0031721408 0.00015509184)
(120.00147 0.0031748199 -0.00025139195)
(120.00149 0.0031201709 -0.00068350482)
(120.00158 0.0031090893 -0.00093272129)
(120.00156 0.0027331201 -0.0013958325)
(120.00153 0.0027038431 -0.0015080544)
(120.0017 0.0025660504 -0.0018037145)
(120.00167 0.0021629849 -0.0020929295)
(120.00168 0.0020829651 -0.0021658014)
(120.00174 0.0017854384 -0.002551379)
(120.00159 0.0014744747 -0.0026734274)
(120.00164 0.0013518139 -0.0026830811)
(120.00168 0.00087362598 -0.0030440527)
(120.00159 0.00061457849 -0.0030728197)
(120.00156 0.00018737549 -0.0031467913)
(120.00157 -0.00021215197 -0.0031466384)
(120.0016 -0.00063739958 -0.0030720596)
(120.00236 -0.00094655922 -0.0044847748)
(120.0025 -0.00132899 -0.0044445875)
(120.00246 -0.0019964962 -0.0039305757)
(120.0024 -0.0021828885 -0.0038909426)
(120.00261 -0.0026276339 -0.0037207213)
(120.00254 -0.0030392575 -0.0031804809)
(120.00254 -0.0031576752 -0.0030651672)
(120.00261 -0.003697066 -0.0026535141)
(120.00239 -0.0038693922 -0.0022087363)
(120.00245 -0.0039118955 -0.0020237842)
(120.00249 -0.0044254658 -0.001356521)
(120.00235 -0.0044684009 -0.00097374849)
(120.00159 -0.0030596271 -0.00065858304)
(120.00105 -0.0020200837 -0.00042753635)
(120.00102 -0.0020758191 -0.00015198327)
(120.00102 -0.0020766368 0.00010485177)
(120.00104 -0.0020224896 0.00038189539)
(120.0011 -0.0019942286 0.00054784711)
(120.00106 -0.0017532767 0.00087846084)
(120.00103 -0.0017608226 0.00095229878)
(120.00113 -0.0016691992 0.0011539985)
(120.00172 -0.0025425749 0.0017692197)
(120.00166 -0.0021566183 0.0020672236)
(120.00165 -0.00208262 0.0021489663)
(120.00168 -0.0017925121 0.0025518398)
(120.00151 -0.0014953355 0.0026905928)
(120.00154 -0.001380468 0.0027205228)
(120.00156 -0.00091647961 0.0030958465)
(120.00147 -0.00066492418 0.0031064962)
(120.00145 -0.0002309808 0.003160863)
(120.00146 0.00017716674 0.0031577814)
(120.00217 0.00027145142 0.0045851976)
(120.00222 0.00091070607 0.0044782788)
(120.00235 0.0013031348 0.004439377)
(120.00231 0.0019754255 0.0039254712)
(120.00226 0.0021700045 0.0038757279)
(120.00248 0.002621287 0.0036913063)
(120.00242 0.0030400287 0.0031385703)
(120.00242 0.0031664048 0.0030082907)
(120.00248 0.003720322 0.0025898555)
(120.00226 0.0039020812 0.0021390234)
(120.00232 0.0039479978 0.0019431488)
(120.00237 0.0044631352 0.0012718078)
(120.00224 0.0044987356 0.00088100656)
(120.00219 0.0046045433 0.00024320626)
(120.00219 0.0046067838 -0.0003576587)
(120.00224 0.0045157787 -0.00099348224)
(120.00237 0.004485217 -0.0013717244)
(120.00234 0.003961173 -0.0020327409)
(120.0023 0.0039052919 -0.0022159334)
(120.00253 0.0037201826 -0.0026550698)
(120.00248 0.003164882 -0.0030656063)
(120.00249 0.0030373041 -0.0031830976)
(120.00257 0.0026182874 -0.0037236525)
(120.00236 0.0021643308 -0.0038947888)
(120.00243 0.0019718816 -0.0039342239)
(120.00248 0.0012999628 -0.0044494565)
(120.00235 0.00091373707 -0.0044865125)
(120.00231 0.00028066067 -0.0045903281)
(120.00231 -0.00031567228 -0.0045898016)
(120.00334 -0.0004547084 -0.0064925157)
(120.00341 -0.0013586854 -0.0063422057)
(120.00359 -0.0019065129 -0.0062855593)
(120.00354 -0.0028189124 -0.005573079)
(120.00346 -0.0030982509 -0.0054811209)
(120.00374 -0.0037264667 -0.0052426304)
(120.00366 -0.0042923467 -0.0045050978)
(120.00366 -0.0044769057 -0.0043240883)
(120.00374 -0.0052133766 -0.0037581869)
(120.00346 -0.0054543258 -0.003129983)
(120.00353 -0.0055495436 -0.002852599)
(120.00358 -0.0062611305 -0.0019406101)
(120.0034 -0.0063209767 -0.0013925522)
(120.00332 -0.0064725074 -0.00048889345)
(120.0023 -0.0045745209 -0.00034284054)
(120.00156 -0.0031351455 -0.00023302405)
(120.00155 -0.0031361354 0.00016706228)
(120.00158 -0.0030627263 0.0005946528)
(120.00167 -0.003034811 0.00085476215)
(120.00162 -0.002674905 0.0013330768)
(120.00157 -0.0026650771 0.0014577461)
(120.00234 -0.0038831631 0.0021418646)
(120.00254 -0.0037114855 0.0025964077)
(120.00246 -0.0031704399 0.0030159844)
(120.00245 -0.0030515908 0.0031457439)
(120.0025 -0.0026399907 0.0037008443)
(120.00227 -0.0021990801 0.0038872298)
(120.00232 -0.0020127003 0.0039439895)
(120.00234 -0.0013506041 0.0044671645)
(120.00221 -0.00096952217 0.0044972631)
(120.00217 -0.0003314941 0.0045879184)
(120.00316 -0.00046853822 0.0064726419)
(120.00316 0.00039897808 0.0064707329)
(120.00323 0.0013118478 0.0063198866)
(120.00341 0.0018712109 0.0062634274)
(120.00336 0.0027916242 0.0055525202)
(120.00329 0.0030815112 0.0054505267)
(120.00357 0.0037183252 0.0051985904)
(120.0035 0.0042922077 0.0044492459)
(120.0035 0.0044847097 0.0042520988)
(120.00358 0.0052355129 0.0036786288)
(120.0033 0.0054841303 0.0030424911)
(120.00338 0.005581567 0.0027510719)
(120.00343 0.0062940206 0.0018318572)
(120.00326 0.006346518 0.0012746426)
(120.00319 0.0064961286 0.00036359826)
(120.00319 0.006497543 -0.00050137902)
(120.00326 0.0063565787 -0.0014093021)
(120.00345 0.0063029207 -0.0019554441)
(120.00341 0.0055847839 -0.0028644976)
(120.00335 0.0054783214 -0.0031416361)
(120.00364 0.0052259626 -0.003765425)
(120.00358 0.0044754304 -0.0043306122)
(120.0036 0.0042806281 -0.0045120692)
(120.00369 0.0037073268 -0.005250698)
(120.00342 0.0030695155 -0.0054891153)
(120.00351 0.0027829756 -0.0055800178)
(120.00357 0.0018653051 -0.0062932647)
(120.0034 0.0013131256 -0.0063452688)
(120.00333 0.0004066219 -0.0064935029)
(120.00468 0.00057100867 -0.0089148405)
(120.00468 -0.00063536492 -0.0089132678)
(120.00478 -0.0018891395 -0.0086973558)
(120.00501 -0.0026457406 -0.0086160703)
(120.00495 -0.0038489643 -0.0076588324)
(120.00486 -0.0042536285 -0.0074763908)
(120.00519 -0.0051108884 -0.0071513024)
(120.00509 -0.0058613751 -0.0061745615)
(120.00509 -0.0061404233 -0.00589953)
(120.00518 -0.0071157647 -0.0051490289)
(120.00485 -0.0074436232 -0.0042917926)
(120.00494 -0.0076297274 -0.0038896925)
(120.00499 -0.0085853631 -0.0026871044)
(120.00476 -0.0086702167 -0.0019304233)
(120.00466 -0.0088873861 -0.00067744937)
(120.00465 -0.0088896338 0.00052860121)
(120.00331 -0.0064742135 0.00037259681)
(120.00229 -0.0045758044 0.0002539352)
(120.00234 -0.0044725799 0.00088742488)
(120.00246 -0.0044366816 0.0012748444)
(120.00241 -0.0039226782 0.0019468721)
(120.00348 -0.0055642928 0.0027503245)
(120.00339 -0.0054735034 0.0030400841)
(120.00365 -0.0052345141 0.0036785436)
(120.00356 -0.0044952961 0.0042524542)
(120.00354 -0.0043122569 0.004450012)
(120.0036 -0.0037458091 0.0052002859)
(120.00331 -0.0031199638 0.0054542701)
(120.00337 -0.0028389944 0.0055619011)
(120.00341 -0.0019286392 0.006278901)
(120.00323 -0.0013790693 0.0063320842)
(120.00457 -0.0019084403 0.0086649541)
(120.00447 -0.00064769067 0.0088748189)
(120.00447 0.00056562386 0.0088741146)
(120.00457 0.0018297448 0.008659106)
(120.00479 0.0026004654 0.0085777132)
(120.00474 0.0038149482 0.0076231832)
(120.00464 0.0042325842 0.0074306199)
(120.00498 0.0051008491 0.0070920107)
(120.0049 0.0058607818 0.0061035714)
(120.0049 0.0061479938 0.0058108245)
(120.00499 0.0071382845 0.0050513902)
(120.00466 0.0074728269 0.0041840928)
(120.00476 0.0076599451 0.0037646349)
(120.00482 0.0086164444 0.0025516629)
(120.0046 0.0086931023 0.0017837466)
(120.00451 0.0089068082 0.00052192614)
(120.00452 0.008907086 -0.00068831907)
(120.00462 0.0086967804 -0.0019459826)
(120.00485 0.0086136782 -0.0027033932)
(120.00481 0.0076535792 -0.0039058327)
(120.00473 0.0074570001 -0.0043087338)
(120.00508 0.0071178225 -0.0051627193)
(120.005 0.0061294176 -0.0059132001)
(120.00502 0.0058386271 -0.0061873727)
(120.00513 0.0050803491 -0.0071660143)
(120.00481 0.0042126885 -0.0074899781)
(120.00491 0.0037993256 -0.0076702187)
(120.00498 0.002589611 -0.008627573)
(120.00477 0.0018278157 -0.0087023028)
(120.00647 0.0024504271 -0.011517403)
(120.00636 0.00077236016 -0.011813227)
(120.00637 -0.00085630089 -0.0118108)
(120.00649 -0.0025305915 -0.011509685)
(120.00673 -0.0035404279 -0.011401475)
(120.00667 -0.0050517526 -0.010168603)
(120.00657 -0.0056282303 -0.0098337119)
(120.00691 -0.0067601346 -0.0094097244)
(120.00682 -0.0077118937 -0.0081694808)
(120.00681 -0.008128692 -0.0077572311)
(120.00691 -0.0093671323 -0.006805408)
(120.00656 -0.0097941732 -0.0056735093)
(120.00666 -0.01013307 -0.0051002981)
(120.00671 -0.011363431 -0.0035898701)
(120.00646 -0.011475487 -0.0025801796)
(120.00634 -0.011777723 -0.00090745124)
(120.00633 -0.011780703 0.00072009918)
(120.00642 -0.011486326 0.0023972316)
(120.00473 -0.0086781696 0.0017852124)
(120.00337 -0.0063267551 0.0012793352)
(120.00354 -0.0062762275 0.0018327598)
(120.00494 -0.008605299 0.0025481866)
(120.00487 -0.0076493557 0.0037573686)
(120.00476 -0.0074695718 0.0041747545)
(120.00508 -0.0071450502 0.0050431126)
(120.00497 -0.0061657435 0.0058020319)
(120.00495 -0.0058897896 0.0060962709)
(120.00502 -0.0051378305 0.0070843152)
(120.00467 -0.0042814907 0.0074255678)
(120.00475 -0.0038739821 0.0076236499)
(120.0048 -0.0026699895 0.0085823045)
(120.00649 -0.0035680706 0.011342622)
(120.00624 -0.0025499852 0.011456037)
(120.00612 -0.00086734038 0.011754184)
(120.00612 0.00077000989 0.011755126)
(120.00623 0.0024571877 0.011456657)
(120.00648 0.0034846627 0.011348525)
(120.00642 0.0050111553 0.010118917)
(120.00632 0.0056033286 0.0097738483)
(120.00667 0.0067492941 0.0093356627)
(120.00658 0.0077126772 0.008082876)
(120.00658 0.0081379401 0.0076507931)
(120.00668 0.0093929073 0.0066881201)
(120.00634 0.0098261388 0.0055434469)
(120.00645 0.010164679 0.0049490524)
(120.00651 0.011396715 0.0034246448)
(120.00628 0.01149924 0.0024007858)
(120.00618 0.011796398 0.00071650129)
(120.00618 0.011795202 -0.00091714585)
(120.0063 0.011496551 -0.0025961192)