/*--------------------------------*- C++ -*----------------------------------*\
  =========                 |
  \\      /  F ield         | OpenFOAM: The Open Source CFD Toolbox
   \\    /   O peration     | Website:  https://openfoam.org
    \\  /    A nd           | Version:  7
     \\/     M anipulation  |
\*---------------------------------------------------------------------------*/
FoamFile
{
    version     2.0;
    format      ascii;
    class       volScalarField;
    location    "300";
    object      nut;
}
// * * * * * * * * * * * * * * * * * * * * * * * * * * * * * * * * * * * * * //

dimensions      [0 2 -1 0 0 0 0];

internalField   nonuniform List<scalar> 
24866
(
7.9871355
7.993963
7.9907857
8.1778771
8.34244
8.3402624
8.336201
8.3404646
8.3397338
8.3348703
8.3351306
8.3351673
8.3348938
8.3397677
8.3405475
8.3361861
8.3400876
8.3413815
8.3405199
8.335994
8.3259471
8.340359
8.3708345
8.3582262
8.3324997
8.3285499
8.3363989
8.3604137
8.3556675
8.3291457
8.3383246
8.3413921
8.3413931
8.3383329
8.3291933
8.355715
8.3605212
8.3364912
8.3284418
8.3323263
8.358159
8.3707893
8.3403494
8.3259497
8.3360188
8.3405699
8.3414015
8.3401627
8.3361954
8.3404709
8.3398509
8.3349902
8.335128
8.3351426
8.3349533
8.3397322
8.3403457
8.3360847
8.3402264
8.3424874
8.3463461
8.3431123
8.3463375
8.3430537
8.3368247
8.3395651
8.3453971
8.3420151
8.334427
8.3344147
8.3344391
8.3344307
8.3420667
8.3454462
8.3395725
8.3366941
8.3425454
8.3453011
8.3417844
8.342912
8.3376679
8.3299889
8.3283386
8.33909
8.3427738
8.3480367
8.3326385
8.328703
8.3364108
8.3485094
8.3426931
8.3379986
8.3369822
8.3377791
8.3361347
8.3335112
8.3360501
8.3350034
8.3385973
8.3361764
8.3339798
8.3336445
8.3336961
8.3343288
8.3350399
8.3350421
8.3348628
8.3377238
8.336793
8.3364936
8.3331123
8.3401472
8.3441446
8.3419295
8.3378152
8.3354802
8.3346241
8.3341175
8.3344671
8.3347832
8.3347132
8.3341972
8.3345921
8.3338336
8.3333659
8.3340015
8.3360048
8.3335509
8.332843
8.3330735
8.3339658
8.3348381
8.3353571
8.3351047
8.3351934
8.3348855
8.3344705
8.3348677
8.3346264
8.3367968
8.3378182
8.3331203
8.3401505
8.3441465
8.2387928
8.2354673
8.1650566
8.1703746
8.1771267
8.1771236
8.1703663
8.1680425
8.1366847
8.2614392
8.2641287
8.1430927
8.1679657
8.1698923
8.1639898
8.1380045
8.0966436
8.1118257
8.157695
8.1688359
8.1759798
8.1755516
8.1747241
8.172708
8.1718563
8.1691773
8.1670743
8.1591506
8.1591111
8.1670622
8.1690821
8.1715924
8.1731114
8.1744523
8.1675744
8.1752216
8.2404414
8.238721
8.1677431
8.103295
8.1763665
8.1780563
8.1699248
8.3391132
8.3357885
8.3391203
8.336225
8.3339466
8.3359588
8.333528
8.3328141
8.3330321
8.333902
8.334748
8.3352506
8.3353619
8.3354649
8.3351981
8.3347911
8.335051
8.33699
8.3377288
8.3427039
8.336504
8.1702162
8.1797998
8.2019915
8.2614965
8.1366384
8.1680224
8.0008546
7.988646
7.9903556
7.9903519
7.9886381
8.000864
7.9665347
7.9658603
7.9851511
8.0061589
7.9844737
7.9615816
7.9478302
7.9643314
7.9899558
7.9881485
7.9893654
7.9881994
7.994196
8.005631
7.9885321
7.9860219
8.0009507
7.9921028
7.9921616
8.0010426
7.9859979
7.98828
8.0060849
7.8414165
7.8316427
7.8254413
7.8256754
7.8313787
7.9936716
8.1741974
8.1732224
8.1714279
8.1691631
8.1670555
8.1591279
8.1591318
8.167194
8.168937
8.1719934
8.1727216
8.1749448
8.1754874
8.1761251
8.1688123
8.1577348
8.1118734
8.2303159
8.2760796
8.2633094
8.1381029
8.1641246
8.1699918
8.1678302
8.1428759
8.2641617
8.2086385
8.1431594
8.1401221
8.1017471
8.1681591
8.1637739
8.19572
8.234489
8.3485552
8.3364455
8.3286825
8.3380038
8.3427634
8.337788
8.3350531
8.3347259
8.3351142
8.3346056
8.3348465
8.3347517
8.3343156
8.333669
8.3332815
8.3340405
8.333503
8.3336716
8.3339088
8.3339768
8.3338497
8.3336654
8.3342145
8.3343471
8.3361493
8.3390853
8.3283483
8.3335361
8.3337205
8.335032
8.3340041
8.3333832
8.3330863
8.3330418
8.3332864
8.3340402
8.3362193
8.3339545
8.3328266
8.3328582
8.3340185
8.3362044
8.3386353
8.3418123
8.3360815
8.3300213
8.3377099
8.3429501
8.2372554
8.1723979
8.1621117
8.2333943
8.1640301
8.1730706
8.0994355
7.9851883
7.9881126
7.9900028
7.9643728
7.9478596
8.0967939
8.1228754
8.1330299
8.1837903
8.1918783
8.2021104
8.1662845
8.0995572
8.1359747
7.9686188
7.9616076
7.9844899
8.0061797
7.9851343
7.9658567
7.9665531
7.812359
7.8362577
7.8261057
7.8251504
7.8251472
7.8261008
7.8362682
7.8123483
7.8073366
7.8213868
7.8439421
7.8209393
7.8017341
7.7997498
7.8185987
7.8287092
7.8253444
7.8239421
7.8231551
7.8317995
7.8409837
7.8266018
7.8238703
7.8402485
7.8349076
7.8348739
7.8402674
7.8239005
7.8264247
7.6804907
7.6913915
7.6851706
7.6789084
7.6790875
7.684952
7.6915053
7.8415516
8.0062139
7.988128
7.9861447
8.0008612
7.9921124
7.9922197
8.0011117
7.9859166
7.9887352
8.0055498
7.9944494
7.9881209
7.9895321
7.8240786
7.8253023
7.8287507
7.8186434
7.7997688
7.8017597
7.8209729
7.843975
7.8213521
7.8073113
7.6656859
7.6713634
7.6867356
7.6799576
7.6785363
7.6785333
7.6799541
7.6867444
7.6713546
7.6657077
7.6753452
7.6955552
7.6744095
7.6588499
7.662146
7.6796599
7.6816202
7.679045
7.6772073
7.6768552
7.6851403
7.6909639
7.6805898
7.6782801
7.6919811
7.6886768
7.6886985
7.6920763
7.6783482
7.5459957
7.5475967
7.5548582
7.5515295
7.5460851
7.5462143
7.5513577
7.5549435
7.5474832
7.5460068
7.6784074
7.824004
7.8401368
7.8349278
7.8349404
7.8402851
7.8238249
7.8268322
7.8408865
7.8320262
7.8230823
7.6767963
7.6773081
7.6790028
7.6816513
7.6797005
7.6621544
7.6588692
7.6744438
7.6955892
7.675313
7.5430169
7.5364758
7.5417793
7.5509676
7.5469088
7.5455846
7.5455812
7.546906
7.550974
7.5417729
7.5364949
7.5430453
7.5598191
7.541426
7.5289904
7.5346253
7.5498879
7.5477605
7.5459214
7.5442369
7.5441869
7.5512966
7.554426
7.5476165
7.5458873
7.5563424
7.5543957
7.5544447
7.5564815
7.4331723
7.4255226
7.4266069
7.4311113
7.4297448
7.4253978
7.4254872
7.4296126
7.4311686
7.426502
7.4254881
7.4329222
7.5562455
7.6918765
7.6887019
7.6887616
7.6920582
7.6782804
7.6808191
7.6908763
7.6853235
7.551438
7.5441419
7.5443059
7.5458818
7.5477812
7.5499219
7.534628
7.5290051
7.5414595
7.5598522
7.4362389
7.4229307
7.4185053
7.4230268
7.4280217
7.4258164
7.4247976
7.424794
7.4258138
7.4280256
7.4230226
7.4185221
7.4229549
7.436208
7.4206998
7.4109342
7.4173037
7.4301548
7.4262449
7.4248488
7.4234797
7.4236084
7.4293335
7.4306649
7.4265531
7.4253822
7.4330061
7.4319454
7.4320115
7.3205078
7.321146
7.3157099
7.3163624
7.3189331
7.3187842
7.3155259
7.315586
7.3186826
7.3189661
7.3162625
7.3156378
7.3208938
7.3204403
7.4319598
7.5544178
7.5544962
7.5564466
7.5459286
7.5478341
7.5543635
7.4306296
7.4294411
7.423575
7.4235238
7.4248127
7.4262568
7.4301816
7.4173033
7.4109454
7.4207315
7.3109783
7.3238277
7.3136705
7.3106942
7.3143168
7.3165764
7.3155373
7.314869
7.3148656
7.3155346
7.3165782
7.3143142
7.3107089
7.3136905
7.3237994
7.310949
7.3033942
7.3096974
7.3202937
7.3158121
7.3146477
7.3136
7.3138183
7.3182269
7.318465
7.3162415
7.3155436
7.3209633
7.3204317
7.2184989
7.2185798
7.2189358
7.215139
7.2154511
7.216728
7.2172839
7.2149786
7.2150179
7.2172045
7.2167411
7.2153532
7.2150381
7.2186883
7.2185035
7.2185985
7.3205346
7.432049
7.4331283
7.4254574
7.4267567
7.3164318
7.3184543
7.3183095
7.3137941
7.313626
7.314615
7.3158169
7.3203135
7.3096953
7.303403
7.20491
7.2106946
7.2212483
7.2137113
7.2117291
7.2144811
7.215007
7.2146568
7.2143048
7.2143015
7.2146538
7.2150071
7.2144796
7.2117419
7.2137275
7.2212228
7.2106677
7.2049029
7.2107794
7.2193963
7.2149323
7.2138753
7.2130926
7.2133393
7.2166121
7.2162341
7.21527
7.2149507
7.2187437
7.1248393
7.1247328
7.1248167
7.1250385
7.1224184
7.1224706
7.1229137
7.1238376
7.1223106
7.1223352
7.1237741
7.1229108
7.1223728
7.1222962
7.1247981
7.1247344
7.1248274
7.1249826
7.218883
7.3210964
7.3156457
7.2150727
7.2154488
7.2162441
7.2166772
7.213322
7.213106
7.2138456
7.2149316
7.2194099
7.2107763
7.1193601
7.1140595
7.1184135
7.1270462
7.1216007
7.1202986
7.122273
7.121732
7.1217546
7.1216537
7.1216506
7.1217513
7.1217307
7.1222723
7.1203097
7.1216138
7.1270232
7.1183891
7.1140537
7.1193638
7.1262988
7.1221158
7.1210947
7.1205033
7.1207364
7.1230805
7.1223931
7.1222365
7.1222099
7.0361385
7.037956
7.0379036
7.0379891
7.0381605
7.0363657
7.0362256
7.0361539
7.0372292
7.0363081
7.0363226
7.0371766
7.0361381
7.0361265
7.0362282
7.0379285
7.0379031
7.0379922
7.0381014
7.0362842
7.122346
7.1224058
7.1224196
7.123134
7.1207243
7.120508
7.1210675
7.1221109
7.1263072
7.0399116
7.0343704
7.0296692
7.0328918
7.0399419
7.036122
7.0352801
7.0365933
7.0354245
7.0356147
7.0356945
7.0356916
7.0356112
7.0354222
7.036593
7.0352896
7.0361324
7.0399214
7.0328697
7.0296644
7.0343746
7.0399076
7.0361058
7.0350794
7.0346094
7.0348017
7.0364121
7.0356079
7.0359453
6.9554519
6.9558042
6.9570692
6.9570278
6.9571138
6.9572776
6.9560485
6.9557717
6.9554019
6.9564922
6.9560248
6.9560323
6.9564469
6.9553758
6.9556705
6.9559005
6.9570544
6.957026
6.9571102
6.9572149
6.9559559
6.9556073
7.036107
7.0356474
7.036458
7.0347936
7.0346083
7.0350541
7.0360975
6.9559045
6.959315
6.9549305
6.950812
6.9531478
6.9589047
6.9563225
6.9557856
6.9565573
6.9550481
6.9552764
6.9554729
6.9554702
6.9552727
6.9550451
6.9565573
6.9557938
6.9563306
6.9588864
6.9531279
6.950808
6.9549352
6.9593147
6.9559154
6.9548604
6.9544551
6.954591
6.9556363
6.9548336
6.8792681
6.8800254
6.8804875
6.8813869
6.8813384
6.8814244
6.8815982
6.8807475
6.8803786
6.8798552
6.8808778
6.8807376
6.8807403
6.8808372
6.8798207
6.8802752
6.8805927
6.881384
6.8813361
6.8814146
6.8815316
6.8806424
6.8801755
6.8793251
6.9548831
6.9556774
6.9545856
6.95445
6.9548365
6.8796681
6.8807731
6.8837956
6.8803531
6.8767772
6.8784242
6.8831284
6.8814718
6.8811306
6.8814729
6.8798099
6.8799979
6.880259
6.8802564
6.8799941
6.8798065
6.881473
6.8811376
6.881478
6.8831121
6.8784065
6.876774
6.8803583
6.8837985
6.8807862
6.8796911
6.8793084
6.8793804
6.8799999
6.8089117
6.8082875
6.8090916
6.8096245
6.8102903
6.8102306
6.8103163
6.8105038
6.8098987
6.8094729
6.8088898
6.8097982
6.8098847
6.8098839
6.8097606
6.8088485
6.8093672
6.8097399
6.8102986
6.8102285
6.810301
6.8104329
6.8097806
6.8092371
6.8083502
6.8089482
6.8800382
6.8793772
6.8793006
6.8085904
6.8089663
6.8101126
6.8127787
6.8100967
6.8070135
6.8081308
6.8119796
6.8110027
6.810781
6.8107931
6.8090953
6.8091993
6.809485
6.8094826
6.8091955
6.8090916
6.8107932
6.8107869
6.8110075
6.8119652
6.8081152
6.8070112
6.8101027
6.8127844
6.8101276
6.8089888
6.8086001
6.8086067
6.7418146
6.7418917
6.741391
6.7421839
6.7427577
6.7432808
6.7432129
6.7432979
6.743496
6.7430445
6.7425885
6.7420049
6.7427767
6.7430122
6.743009
6.7427407
6.741958
6.7424809
6.742884
6.7432996
6.7432113
6.7432778
6.7434205
6.7429133
6.7423253
6.7414578
6.7419274
6.7418139
6.808605
6.8121363
6.8152414
6.8122232
6.8130571
6.8147598
6.8137286
6.8142657
6.8147161
6.8154295
6.8155017
6.8141413
6.7470971
6.7443047
6.7440707
6.7424122
6.7424115
6.7426934
6.7426911
6.7424078
6.7424087
6.7440712
6.7443102
6.7444633
6.7449343
6.7417799
6.7410782
6.7437296
6.7458029
6.7434647
6.7422835
6.7418712
6.6787367
6.6786214
6.678537
6.6781623
6.6789094
6.6795016
6.6799433
6.6798726
6.6799567
6.6801595
6.6797991
6.6793327
6.678784
6.6794121
6.6797387
6.6797339
6.6793772
6.6787327
6.6792237
6.6796386
6.6799715
6.6798718
6.6799323
6.6800793
6.6796554
6.6790468
6.6782319
6.678572
6.6786216
6.6787245
6.7418601
6.7422612
6.743448
6.7457945
6.7437225
6.7410791
6.741793
6.7449465
6.744459
6.6814604
6.6813386
6.6809276
6.6793522
6.6792407
6.6794999
6.6794981
6.6792378
6.6793497
6.6809295
6.6813452
6.6814659
6.6815951
6.6790066
6.6786076
6.6808709
6.6824586
6.6804018
6.6791824
6.6193457
6.6188625
6.6186942
6.6184976
6.6182439
6.6189261
6.6195204
6.6199209
6.6198536
6.6199365
6.6201374
6.6198265
6.6193639
6.6188698
6.6193564
6.6197319
6.6197258
6.6193221
6.618815
6.6192541
6.6196675
6.6199578
6.6198537
6.6199084
6.6200526
6.6196712
6.6190594
6.618315
6.6185318
6.6186943
6.6188485
6.6193209
6.6791597
6.6803829
6.6824468
6.6808614
6.6786057
6.6790158
6.6816035
6.6215855
6.6216775
6.6215653
6.6210326
6.6195645
6.6193453
6.6195706
6.6195695
6.6193444
6.6195652
6.6210388
6.6215769
6.6216885
6.6215851
6.6194583
6.619284
6.6212073
6.6224085
6.620598
6.56375
6.562469
6.5619479
6.5617323
6.5614594
6.561318
6.561926
6.5625105
6.5628961
6.5628381
6.5629197
6.5631123
6.5628233
6.5623743
6.5619444
6.5622963
6.562691
6.562684
6.5622624
6.5618872
6.5622645
6.5626669
6.5629408
6.5628392
6.5628883
6.5630229
6.5626573
6.5620549
6.5613892
6.561492
6.5617307
6.5619299
6.5624389
6.5637182
6.620575
6.6223909
6.6211918
6.6192753
6.6194593
6.5628199
6.5645684
6.5648136
6.5646963
6.5640857
6.562737
6.5624176
6.5626041
6.5626048
6.562422
6.5627463
6.5641038
6.5647225
6.564841
6.5645869
6.5628377
6.5628268
6.5644527
6.5653465
6.5109891
6.5095767
6.5082679
6.5077093
6.5074512
6.5071275
6.5070894
6.5076191
6.5081852
6.5085737
6.5085304
6.5086107
6.5087888
6.5085026
6.5080742
6.5077125
6.5079371
6.5083306
6.508323
6.5079035
6.5076535
6.507965
6.5083498
6.5086254
6.5085327
6.5085763
6.5086951
6.508327
6.5077431
6.5071592
6.5071568
6.5074448
6.5076827
6.5082247
6.5095254
6.5109315
6.5653165
6.5644224
6.5628014
6.5089132
6.5088136
6.5102515
6.5105889
6.5104559
6.5098023
6.5085784
6.5081679
6.5083156
6.5083203
6.5081847
6.5086081
6.5098495
6.5105186
6.5106568
6.5103138
6.5088743
6.5089778
6.5103414
6.4586197
6.4590659
6.4578077
6.4564645
6.4558675
6.4555694
6.4552113
6.4552699
6.45572
6.4562607
6.456666
6.4566433
6.456722
6.4568795
6.456581
6.4561782
6.4558855
6.4559878
6.4563665
6.4563585
6.4559546
6.4558256
6.4560704
6.4564324
6.456724
6.4566468
6.4566851
6.4567818
6.4563971
6.4558385
6.4553365
6.4552345
6.4555524
6.4558228
6.4563928
6.4577143
6.4589486
6.4584781
6.5102765
6.5127436
6.5133897
6.5137217
6.5142307
6.5140134
6.5125189
6.4606871
6.4585684
6.4579
6.4568034
6.4563096
6.4564233
6.456437
6.4563543
6.4568786
6.4580121
6.4587134
6.4588851
6.4585011
6.4573165
6.4574935
6.4081469
6.4090471
6.4093179
6.4081803
6.4067835
6.4061413
6.4058015
6.4054184
6.4055719
6.4059415
6.4064514
6.4068878
6.4068926
6.4069697
6.4070995
6.4067733
6.4063997
6.4061757
6.4061548
6.4065094
6.4065012
6.406122
6.4061154
6.4062938
6.4066295
6.4069517
6.4068975
6.4069309
6.4069983
6.4065824
6.4060543
6.4056333
6.4054307
6.4057641
6.406061
6.4066539
6.4080017
6.4090794
6.4087486
6.407818
6.4573422
6.4571615
6.4583425
6.4587262
6.4089471
6.4087531
6.4080929
6.407126
6.4065532
6.4066419
6.406674
6.406655
6.4072946
6.4083388
6.4090681
6.4092934
6.4089084
6.407934
6.3605361
6.3607471
6.3614152
6.3615145
6.3604536
6.3589648
6.3582603
6.3578703
6.3574652
6.3577185
6.3580063
6.3584822
6.3589678
6.3590085
6.3590838
6.359177
6.3588046
6.3584625
6.3583066
6.3581531
6.3584764
6.3584681
6.3581207
6.3582462
6.3583588
6.358666
6.3590372
6.3590156
6.3590443
6.3590731
6.3586079
6.3581133
6.3577724
6.3574599
6.3577968
6.3581152
6.3587275
6.3601154
6.3610476
6.3608195
6.3600823
6.3598262
6.4075866
6.4085533
6.3606121
6.3609854
6.3607391
6.360105
6.3592712
6.3586177
6.3586943
6.3587608
6.3588265
6.3596152
6.3606033
6.3613753
6.3616857
6.3613372
6.3156736
6.3150154
6.3151841
6.315595
6.3154986
6.3144515
6.3128089
6.3120091
6.3115518
6.3111231
6.3114873
6.3116925
6.3121343
6.3126915
6.3127796
6.3128537
6.3128997
6.3124583
6.312147
6.3120581
6.3117554
6.3120399
6.3120314
6.3117229
6.3119973
6.312045
6.3123245
6.312767
6.3127892
6.3128134
6.3127927
6.3122557
6.3117945
6.3115321
6.3110922
6.3114215
6.3117574
6.3123891
6.3138391
6.3146363
6.3144823
6.3139354
6.3136778
6.3143092
6.3146351
6.3143146
6.3137183
6.3130202
6.3122781
6.3123575
6.3124826
6.3126687
6.313664
6.3146518
6.3155063
6.3159475
6.2721318
6.27197
6.2714297
6.2715156
6.27163
6.2712799
6.2701497
6.2682707
6.2673259
6.2667753
6.2663204
6.2668063
6.2669345
6.267349
6.2679999
6.2681472
6.2682213
6.2682102
6.2676789
6.2673923
6.2673645
6.2668973
6.2671346
6.2671257
6.266864
6.2673022
6.267291
6.2675484
6.2680829
6.2681586
6.2681784
6.2680983
6.2674684
6.2670343
6.2668433
6.2662594
6.2665687
6.26692
6.2675758
6.2691116
6.269791
6.2696945
6.2693368
6.2690943
6.2695917
6.2698489
6.2694334
6.2688761
6.2683078
6.2674686
6.2675625
6.2677772
6.2681342
6.2694151
6.2704946
6.2715035
6.2297191
6.2305881
6.2305627
6.2301193
6.2300953
6.2298759
6.2291623
6.2277918
6.2255856
6.2244347
6.2237655
6.2232868
6.2238878
6.2239688
6.224377
6.2251268
6.2253371
6.2254134
6.2253452
6.2247211
6.2244422
6.2244498
6.2238272
6.2240107
6.2240012
6.2237919
6.2243843
6.2243394
6.2245915
6.2252203
6.2253506
6.2253659
6.2252246
6.2244984
6.2240727
6.2239251
6.2232032
6.2234808
6.2238448
6.2245341
6.2261643
6.2267724
6.2267415
6.2265514
6.2263178
6.2266942
6.2268751
6.2263632
6.2258285
6.2253566
6.2244247
6.2245347
6.2248653
6.2254524
6.2271069
6.2284328
6.1891373
6.1909286
6.1920732
6.192167
6.1918
6.1916821
6.1911142
6.1898235
6.1879204
6.1852971
6.1838909
6.1830988
6.1826022
6.1832608
6.1833931
6.1838408
6.1846496
6.1849207
6.1850032
6.1848854
6.184212
6.1839014
6.1838563
6.1831518
6.1832913
6.1832806
6.183113
6.1837855
6.1837945
6.1840787
6.1847577
6.1849385
6.1849506
6.1847524
6.1839718
6.183513
6.1833179
6.182527
6.182777
6.1831516
6.1838758
6.1855639
6.1862481
6.1863351
6.1862215
6.185925
6.1861869
6.1863103
6.1857552
6.1851931
6.1847038
6.1837277
6.1838462
6.1842941
6.1851562
6.1872739
6.1504646
6.1535295
6.1562437
6.1576318
6.1577486
6.1574438
6.157329
6.1564572
6.1541883
6.1510967
6.1479628
6.1463112
6.1454328
6.1449049
6.1453951
6.1459163
6.1464612
6.1471654
6.1476004
6.1477056
6.1474416
6.1468707
6.1464757
6.1460574
6.1455239
6.1456756
6.1456631
6.1454803
6.1459797
6.1463634
6.1467292
6.1472919
6.1476241
6.1476477
6.147294
6.1466104
6.1460656
6.1455019
6.1448954
6.1451737
6.1455582
6.1462874
6.1478611
6.1491001
6.1493857
6.1490882
6.1485312
6.1487691
6.1488207
6.1483954
6.1476994
6.14682
6.1460141
6.1461488
6.1466715
6.1477918
6.1135426
6.1166564
6.1226636
6.1272591
6.1283957
6.1282698
6.1280308
6.1281923
6.1275169
6.1233057
6.1172934
6.1137398
6.1120708
6.1111883
6.1105432
6.1102608
6.1121137
6.1127759
6.1129947
6.1139916
6.1140797
6.1132758
6.1132236
6.1127223
6.111005
6.1112495
6.1115611
6.1115476
6.1112015
6.1109194
6.1126024
6.1130745
6.1131405
6.1140202
6.1140177
6.1131109
6.1129457
6.112301
6.1104475
6.1106561
6.1111147
6.1115336
6.1121378
6.1132177
6.1164559
6.116703
6.1154252
6.1144684
6.1151691
6.1147071
6.1146742
6.113827
6.1116893
6.1116281
6.1118744
6.1123774
6.086105
6.0863128
6.0886863
6.0977247
6.1055561
6.1054549
6.1051272
6.104909
6.1053447
6.1058766
6.0983663
6.0893791
6.086572
6.0859277
6.0850144
6.0838706
6.0836258
6.0846007
6.0852897
6.0852081
6.0848868
6.0849967
6.0855253
6.0857694
6.0852422
6.0844315
6.0846432
6.085481
6.0854682
6.0845843
6.084327
6.0851035
6.0856274
6.0853586
6.0849228
6.0849375
6.0853476
6.0855025
6.0848299
6.0838599
6.0841026
6.0850944
6.0857409
6.0857938
6.0875061
6.0930548
6.094279
6.0897074
6.0872946
6.086541
6.0870209
6.0872091
6.0862935
6.0850695
6.0848819
6.0856728
6.0643641
6.0646314
6.0653012
6.0670844
6.0655159
6.065779
6.0661578
6.0659564
6.0660338
6.0659759
6.0678436
6.0656102
6.0645482
6.063724
6.0631352
6.0641757
6.0631765
6.063735
6.0651317
6.0646611
6.0647802
6.0654585
6.064213
6.0638496
6.0650097
6.063997
6.0643177
6.0643005
6.0639304
6.0649126
6.0637023
6.0640522
6.0652889
6.0646951
6.0647176
6.0652743
6.0639297
6.0634535
6.0644633
6.0634951
6.0640383
6.0647821
6.0655721
6.0676758
6.0641009
6.0637446
6.0680146
6.067868
6.0667253
6.0670852
6.0657418
6.0648685
6.0656182
6.0641114
6.0616806
6.0608674
6.0677861
6.0757522
6.0812424
6.0845526
6.0824434
6.0823741
6.0836976
6.0812006
6.076446
6.0679314
6.0607491
6.061537
6.0677971
6.0761686
6.0847483
6.0900652
6.0823699
6.0603657
6.0598176
6.0821648
6.0900255
6.0842091
6.0759522
6.0693488
6.063286
6.0611447
6.0728812
6.0741285
6.0851006
6.0856707
6.0976125
6.0846032
6.0837545
6.0896072
6.0842718
6.0967507
6.0840522
6.0725
6.0726039
6.0834179
6.0833486
6.0882586
6.0680298
6.0706013
6.0754732
6.0758195
6.0759618
6.0732363
6.0712098
6.0695667
6.0630891
6.0615676
6.0729483
6.073322
6.0841311
6.0968182
6.0837025
6.0844016
6.0846233
6.0893798
6.0926461
6.0906447
6.1021497
6.0936535
6.0940312
6.090395
6.0851688
6.0796621
6.0791179
6.0851984
6.0906068
6.0889537
6.10261
6.0912037
6.0885405
6.0799405
6.0657363
6.0697004
6.0696543
6.0686413
6.062691
6.0624017
6.0738028
6.0849212
6.0860732
6.0996833
6.0857381
6.0740861
6.0853193
6.089667
6.1182438
6.1182504
6.1214013
6.1157945
6.1148132
6.1180046
6.1158819
6.1504708
6.1884828
6.193557
6.187713
6.1494542
6.1545675
6.1636948
6.152254
6.1910327
6.1962942
6.189563
6.1517853
6.1534306
6.1915689
6.1922333
6.1540567
6.1194577
6.0901795
6.0972207
6.0957157
6.0921826
6.1035234
6.0953175
6.1254427
6.1360098
6.1418121
6.1257496
6.1282348
6.1409145
6.1063308
6.107902
6.1037119
6.1133254
6.1061268
6.0960021
6.0905806
6.1192858
6.1264919
6.1373347
6.1265003
6.1261732
6.1006863
6.0851131
6.0841036
6.084043
6.0838327
6.0841942
6.085562
6.1011095
6.1015493
6.1014394
6.1015599
6.1015112
6.1283177
6.1287482
6.13255
6.1313038
6.0973193
6.0736193
6.0826927
6.0818696
6.0306403
5.9723174
5.9627634
5.9630805
5.972929
6.0313314
6.0440818
6.0786769
6.0843622
6.0849791
6.0796601
6.0461421
6.0338456
5.9749559
5.965586
5.96562
5.9750083
6.0339555
6.0464119
6.0803211
6.0858073
6.0858207
6.0914324
6.0826591
6.0712708
6.0618204
6.0619385
6.0682293
6.0694946
6.0694985
6.068177
6.0618063
6.0616511
6.0710531
6.0824508
6.0911906
6.0850433
6.0845899
6.0787868
6.043459
6.03005
5.968621
5.9582002
5.95731
5.9675098
6.0292947
6.0427813
6.0781863
6.0839279
6.0835687
6.077742
6.0434504
6.0100687
5.9820767
5.9026252
5.7425351
5.5545727
5.4378911
5.4390998
5.5577992
5.7462884
5.9050699
5.9836192
6.0118754
6.0465621
6.0849159
6.0871807
6.0770106
6.0783602
6.0863794
6.0642281
5.9766442
6.0343986
5.9900229
5.9370269
5.7499197
5.6009152
5.4838773
5.3237254
5.2172391
5.1092552
5.0668312
5.0662407
5.1077499
5.2148476
5.3197344
5.4791173
5.5967098
5.7447151
5.4801604
5.3441714
5.1623198
5.0418266
4.9133525
4.8634371
4.8640189
4.9150426
5.044619
5.1664156
5.3495571
5.4849806
5.3277555
5.5666631
5.8125565
5.889791
5.8743891
5.9676132
5.9678048
6.0642987
6.0863878
6.0783674
6.0770837
6.0872431
6.0849942
6.0347543
5.9770264
5.8903704
5.8744818
5.7803896
5.7801553
5.4533685
5.1184017
5.2237653
5.0506313
5.1697005
5.0024511
4.8446996
4.7062684
4.6350283
4.6346264
4.7042457
4.8412379
4.9982033
5.1636094
5.3221457
5.5599674
5.217526
5.0436338
4.8423148
4.6361055
4.4689467
4.3785598
4.378918
4.4706598
4.6397701
4.8475774
4.7111821
4.9233127
4.8735491
5.0764241
5.0760495
5.4534257
5.1173593
4.9226123
4.8730969
4.6406926
4.6413971
4.3824244
4.4729619
4.2784695
4.1706922
4.170328
4.2770363
4.4695842
4.7058045
4.9157993
5.1113415
5.4447763
5.0695829
4.8656242
4.6355922
4.3784894
4.1701287
4.054429
4.0547085
4.1718344
4.1710499
4.3818523
4.4715355
4.709641
4.84601
5.0496894
5.2230139
5.5674229
5.8133076
5.9378575
5.9904532
6.0124726
6.0469397
6.080411
6.0730261
6.0561774
5.9844428
5.9067664
5.7519417
5.486757
5.327547
5.1695908
5.0016294
4.8435992
4.6374436
4.4685476
4.2760752
4.1684705
4.0536966
4.0531863
4.1690379
4.3780437
4.6350348
4.8657029
5.0696167
5.4454601
5.1111946
4.9154934
4.7044692
4.4676512
4.2744473
4.1677419
4.3764746
4.3767129
4.6338938
4.7045713
4.9162688
5.0458835
5.1675106
5.3513982
5.4858003
5.6021245
5.7506208
5.5635878
5.3246797
5.2186374
5.110787
5.0685869
4.8654836
4.8653606
4.6332999
4.7036744
4.4668714
4.6347427
4.8412958
5.0435671
5.2178388
5.5615621
5.3234466
5.1646084
4.9981087
4.8410238
5.0439943
4.9151216
5.110124
5.0682005
5.4469937
5.4472686
5.7760338
5.8094897
5.9364998
5.983656
6.0115775
6.072899
6.0813981
6.0870868
6.0808515
6.0053198
5.9882977
5.863925
5.8521477
5.8521115
5.8636472
5.9881604
6.0052309
6.0795636
6.0796048
6.0717249
6.0802904
6.0714851
6.0095029
5.9862918
5.882308
5.865215
5.8638316
5.8803516
5.9848874
6.0080489
6.0703068
6.0791437
6.0702811
6.0528153
5.9796266
5.9303098
5.8012219
5.7665228
5.7681028
5.8035461
5.9325146
5.98147
6.0544057
6.0663004
6.0795345
6.0030988
5.9854316
5.8576616
5.8452607
5.8436475
5.8556609
5.984039
6.0017532
6.0782588
6.0849508
6.1012273
6.0783489
6.0648282
5.9876133
6.0071532
5.9486211
5.8102377
5.8485773
5.7840578
5.4622039
5.5753636
5.7574405
5.9170733
5.9901629
6.0042405
6.0099026
5.9869107
5.9876437
5.9341677
5.810143
5.8879954
5.8721455
5.7767484
5.7775997
5.8725892
5.8888634
5.8113733
5.9358861
5.7480128
5.599407
5.4824184
5.3223061
5.2173555
5.5621022
5.7485592
5.9055186
5.9834529
6.010951
5.98862
5.9876337
5.8647308
5.852887
5.8524561
5.8640909
5.8578214
5.8191185
5.9522074
5.7599692
5.5876417
5.5138731
5.4670181
5.4398287
5.4854057
5.3483848
5.4864413
5.440154
5.361662
5.1310674
5.2050524
5.299443
5.2133192
5.1347724
5.1260653
5.0489193
5.0416065
5.1488459
4.9915845
5.1502683
5.3022065
5.5813165
5.206629
5.1279306
5.131969
5.0506103
5.1360917
5.2159574
5.0434204
4.9029941
5.0923267
5.4697859
5.7939422
5.7947718
5.8582222
5.819953
5.9533996
6.0102333
6.0045946
5.990748
5.9186881
5.7619484
5.5819938
5.4702539
5.0580624
5.0579921
4.9502526
4.9778924
4.9013109
4.8864235
4.8527028
4.8583858
4.6276668
4.6977736
4.8365146
4.8335467
4.9888872
4.8327928
4.8352835
4.6230045
4.6092995
4.4337454
4.6915271
4.8845287
4.9755821
5.0882967
5.0544395
4.9479256
4.8986577
4.8503725
4.8560947
4.9003917
4.6960618
4.6266697
4.6212944
4.3400963
4.360091
4.4519919
4.2555908
4.4527769
4.4339849
4.6927778
4.6221956
4.3398541
4.3599585
4.1464159
4.1181741
4.230017
4.1189332
4.1464845
4.0280879
3.99675
3.9628694
4.0886333
4.317439
4.6184744
4.6893443
4.8334283
4.992587
4.9825518
4.8148128
4.577521
4.81615
4.8341447
4.5939863
4.4132346
4.3916999
4.6723162
4.5962582
4.2931283
4.2722016
4.6059353
4.8822113
5.5217723
5.6357177
5.8047612
5.9548321
5.9386475
5.7952084
5.6258914
5.5209868
5.5225455
5.8504873
5.7857017
5.8122501
5.9505244
6.0084577
5.988937
5.9186541
5.7604944
5.5782239
5.463293
5.0550516
4.9483724
4.89928
4.9759722
5.0896328
4.9019413
4.8566895
4.8508839
4.8850988
5.0514244
5.1366774
5.2153747
5.3028677
5.2073754
5.1281289
5.1329134
5.1521587
5.0440014
4.8384892
4.6980611
4.6269461
4.6215103
4.6929133
4.4348266
4.3399902
4.3603582
4.4534932
4.6262922
4.6121779
4.8349767
4.9916879
4.9948618
4.8410131
4.8372013
4.6964085
4.4366785
4.2314447
4.1189346
4.1468145
4.2567033
4.1479254
4.0282349
3.9967112
4.1192553
4.3425326
4.3633149
4.4555611
4.7019839
4.6324523
4.625949
4.8591886
4.8928054
5.0563163
5.1372646
5.3660873
5.4439977
5.4895994
5.5915356
5.7624493
5.5172622
5.4704869
5.4437543
5.4909325
5.3529866
5.1555983
5.3075144
5.5838697
5.2111163
5.1326068
5.1408047
5.2218353
5.049434
4.909477
5.0989622
5.4728863
4.983406
4.9069401
4.9550407
5.0643206
4.8651518
4.8647725
4.6314451
4.3629005
4.1469909
4.0272324
4.026704
4.1452162
4.3596083
4.6269769
4.8585353
4.8527931
4.9498847
4.9008604
4.976943
5.091876
4.9025042
4.8857607
5.0498774
5.1355304
5.2159423
5.0428263
5.1503
5.3025905
5.2055856
5.1264717
5.1307237
4.9869905
4.8316875
4.6911977
4.6213797
4.3387451
4.4315401
4.4504389
4.6960934
4.8348942
4.62108
4.6066198
4.8301511
4.8340556
4.9903979
5.150363
5.1643477
5.3471109
5.4831422
5.488927
5.4417698
5.4678246
5.362863
5.3503443
5.4883727
5.7605314
5.5897952
5.5143273
5.4406588
5.2046732
5.1309522
5.1255555
5.0487856
5.0426427
5.2154144
5.5788171
5.301545
5.1336362
4.9742167
4.8837721
4.6884955
4.4299189
4.227298
4.1168076
3.9951387
4.1154793
4.1436142
4.2525917
4.4492437
4.3573101
4.3356022
4.6174896
4.6239358
4.6942719
4.9009307
4.8568512
4.8499353
4.8971489
4.9456917
5.466189
5.0902018
5.0558957
5.0562247
4.8569663
4.6244978
4.3575599
4.1442817
4.1154751
3.9955652
4.1183111
4.2281175
4.2540089
4.4539417
4.4340938
4.341337
4.6246765
4.6943761
4.7002752
4.8387261
4.6232378
4.4507671
4.4307259
4.3357455
4.6174723
4.6888152
4.6950034
4.8362282
4.8314965
4.608083
4.8340633
4.9887629
4.9930356
5.1544127
5.0480497
4.9085408
4.8911739
4.8579388
4.905282
4.9539938
5.4727186
5.0637477
5.0975786
4.981348
5.1390522
5.0538501
5.1297236
5.1341812
5.2082195
5.5837479
5.2205863
5.3062499
5.4919815
5.3539591
5.1521369
5.0442496
4.9018836
4.8840488
4.8499633
4.8971894
4.9457917
5.466352
5.0907449
4.9738669
5.1349262
5.0500812
5.126259
5.1316279
5.2051123
5.5797802
5.2163352
5.3032579
5.4911849
5.7618084
5.4433379
5.3658957
5.4697376
5.4437222
5.7632122
5.5922238
5.5164065
5.9191128
5.9402121
5.7996961
5.6326792
5.5300018
5.5302783
5.6333276
5.7997203
5.9399889
5.7977236
5.6284546
5.6377539
5.5228255
4.8828256
5.1262695
5.1310321
5.6700962
5.8766343
6.1153789
6.1403558
6.1264817
6.1185162
6.0901867
6.0961763
6.0940712
6.1241454
6.1200595
6.1193604
6.1208614
6.1162516
6.125359
6.1354234
6.1407934
6.1069021
6.10591
6.0770481
6.0765329
6.1149831
6.1432362
6.1514837
6.1405504
6.1515835
6.1130333
6.0893668
6.0807544
6.0721736
6.095543
6.1039029
6.1073949
6.1428989
6.1419621
6.1057836
6.0806916
6.0618899
6.061962
6.0806771
6.0737092
6.0737869
6.0976773
6.097611
6.132476
6.1286241
6.1282965
6.1313194
6.0973916
6.0737812
6.0827293
6.0819642
6.0894905
6.0809366
6.0725338
6.0697773
6.0761522
6.0843959
6.0908374
6.0844377
6.0633162
6.06339
6.0846991
6.0913875
6.0852554
6.0765215
6.0682148
6.0619835
6.0610322
6.0680411
6.0765446
6.0826835
6.0871978
6.0861621
6.0860807
6.0869196
6.0821759
6.0758268
6.0676206
6.0612339
6.0635182
6.0741521
6.0728922
6.0837449
6.0845867
6.0856601
6.0975519
6.0851469
6.1158209
6.1196101
6.1268039
6.1265705
6.1578208
6.1598432
6.1605094
6.1606552
6.1599071
6.1574426
6.1933101
6.2324983
6.2742373
6.2803268
6.2749245
6.2713778
6.2289058
6.234337
6.2283649
6.2710276
6.2767959
6.2878875
6.2742402
6.2317372
6.2370481
6.230098
6.2727571
6.274693
6.2321308
6.2327804
6.2752669
6.2885256
6.2860161
6.2794483
6.3010194
6.2578735
6.2453237
6.2039707
6.2156942
6.1744721
6.1574423
6.1629962
6.2024965
6.2047011
6.1649427
6.1816117
6.1816387
6.2241571
6.2252471
6.2698835
6.245959
6.2435514
6.2675998
6.3118664
6.3152881
6.3208554
6.3370173
6.3308574
6.3091184
6.2881438
6.2457434
6.232829
6.1926868
6.154713
6.1646572
6.2046269
6.2167555
6.1985873
6.1609647
6.1759585
6.1832512