/*--------------------------------*- C++ -*----------------------------------*\
  =========                 |
  \\      /  F ield         | OpenFOAM: The Open Source CFD Toolbox
   \\    /   O peration     | Website:  https://openfoam.org
    \\  /    A nd           | Version:  7
     \\/     M anipulation  |
\*---------------------------------------------------------------------------*/
FoamFile
{
    version     2.0;
    format      ascii;
    class       volScalarField;
    location    "300";
    object      rho;
}
// * * * * * * * * * * * * * * * * * * * * * * * * * * * * * * * * * * * * * //

dimensions      [1 -3 0 0 0 0 0];

internalField   nonuniform List<scalar> 
24866
(
1.173913
1.1739123
1.1739124
1.1739127
1.1739128
1.1739127
1.1739128
1.1739128
1.1739127
1.1739128
1.1739128
1.1739128
1.1739128
1.1739127
1.1739128
1.1739128
1.1739127
1.1739127
1.1739127
1.1739127
1.1739127
1.1739127
1.1739128
1.1739128
1.1739127
1.1739127
1.1739127
1.1739128
1.1739128
1.1739128
1.1739127
1.1739128
1.1739128
1.1739127
1.1739128
1.1739128
1.1739128
1.1739127
1.1739127
1.1739127
1.1739128
1.1739128
1.1739128
1.1739127
1.1739127
1.1739128
1.1739128
1.1739127
1.1739128
1.1739128
1.1739128
1.1739128
1.1739128
1.1739128
1.1739128
1.1739128
1.1739128
1.1739128
1.1739127
1.1739128
1.1739131
1.1739133
1.1739131
1.1739131
1.1739133
1.1739135
1.1739132
1.1739131
1.1739133
1.1739134
1.1739134
1.1739133
1.1739131
1.1739132
1.1739135
1.1739133
1.1739131
1.1739131
1.1739133
1.1739131
1.173913
1.1739132
1.1739134
1.1739136
1.1739137
1.1739132
1.1739131
1.1739132
1.1739131
1.1739132
1.1739136
1.1739138
1.1739147
1.1739147
1.1739145
1.1739142
1.1739137
1.1739144
1.1739138
1.1739143
1.173915
1.1739158
1.173915
1.1739155
1.1739158
1.1739158
1.1739155
1.1739146
1.1739142
1.1739134
1.1739133
1.1739131
1.1739131
1.1739133
1.1739138
1.1739144
1.173915
1.1739158
1.1739165
1.1739169
1.1739168
1.1739165
1.1739173
1.1739165
1.1739156
1.1739146
1.1739138
1.173914
1.1739149
1.1739158
1.1739169
1.1739177
1.1739182
1.1739177
1.1739177
1.1739173
1.1739165
1.1739155
1.173915
1.1739142
1.1739138
1.1739133
1.1739131
1.1739131
1.1739129
1.1739129
1.173913
1.1739126
1.1739127
1.1739127
1.1739126
1.1739127
1.1739125
1.1739126
1.1739126
1.1739125
1.1739126
1.1739127
1.1739126
1.1739125
1.1739124
1.1739125
1.1739126
1.1739126
1.1739126
1.1739127
1.1739126
1.1739127
1.1739127
1.1739126
1.1739127
1.1739127
1.1739127
1.1739127
1.1739126
1.1739127
1.1739128
1.1739126
1.173913
1.1739131
1.173913
1.1739129
1.1739133
1.173913
1.1739132
1.1739133
1.1739139
1.1739138
1.1739144
1.1739138
1.1739143
1.1739146
1.1739138
1.173914
1.1739149
1.1739159
1.1739169
1.1739177
1.1739182
1.1739182
1.1739182
1.1739177
1.1739169
1.1739158
1.1739148
1.1739146
1.1739136
1.1739135
1.1739134
1.1739133
1.1739132
1.1739126
1.1739126
1.1739127
1.1739126
1.1739124
1.1739125
1.1739125
1.1739123
1.1739126
1.1739124
1.1739124
1.1739125
1.1739125
1.1739125
1.1739124
1.1739123
1.1739123
1.1739125
1.1739123
1.1739124
1.1739124
1.1739123
1.1739125
1.1739124
1.1739124
1.1739125
1.1739125
1.1739125
1.1739125
1.1739124
1.1739124
1.1739126
1.1739121
1.1739118
1.1739119
1.1739119
1.1739118
1.1739123
1.1739126
1.1739128
1.1739127
1.1739127
1.1739127
1.1739127
1.1739127
1.1739127
1.1739127
1.1739127
1.1739128
1.1739126
1.1739127
1.1739127
1.1739126
1.1739127
1.1739125
1.1739126
1.1739127
1.1739126
1.1739125
1.1739126
1.1739127
1.1739127
1.1739125
1.1739126
1.173913
1.173913
1.173913
1.173913
1.1739132
1.1739132
1.1739135
1.1739133
1.1739132
1.1739131
1.1739132
1.1739138
1.1739137
1.1739147
1.1739158
1.1739169
1.1739177
1.1739173
1.1739177
1.1739177
1.1739173
1.1739165
1.1739156
1.173915
1.1739158
1.1739165
1.1739169
1.1739169
1.1739165
1.1739158
1.1739165
1.1739155
1.1739145
1.1739136
1.1739134
1.1739142
1.173915
1.1739144
1.1739151
1.1739156
1.1739159
1.1739159
1.1739156
1.1739151
1.1739143
1.1739147
1.1739149
1.1739149
1.1739147
1.1739143
1.1739138
1.1739134
1.1739138
1.1739133
1.1739131
1.1739131
1.1739129
1.1739131
1.173913
1.1739129
1.1739133
1.1739132
1.173913
1.173913
1.1739123
1.1739125
1.1739124
1.1739123
1.1739124
1.1739132
1.1739131
1.1739134
1.1739135
1.1739131
1.1739133
1.1739132
1.1739131
1.1739132
1.1739125
1.1739125
1.1739125
1.1739125
1.1739124
1.1739124
1.173912
1.1739122
1.1739119
1.173912
1.173912
1.1739118
1.1739121
1.173912
1.1739119
1.173912
1.1739121
1.1739121
1.173912
1.1739118
1.173912
1.1739121
1.1739118
1.1739119
1.1739119
1.1739118
1.1739121
1.173912
1.1739119
1.173912
1.1739121
1.1739121
1.173912
1.1739119
1.173912
1.1739114
1.1739116
1.1739111
1.1739113
1.1739113
1.1739112
1.1739116
1.1739121
1.1739126
1.1739124
1.1739124
1.1739125
1.1739125
1.1739125
1.1739125
1.1739124
1.1739125
1.1739126
1.1739124
1.1739125
1.1739125
1.173912
1.1739118
1.1739121
1.173912
1.1739119
1.1739121
1.1739121
1.1739121
1.1739121
1.1739119
1.1739113
1.1739115
1.1739116
1.1739112
1.1739114
1.1739114
1.1739112
1.1739116
1.1739115
1.1739113
1.1739115
1.1739116
1.1739116
1.1739115
1.1739113
1.1739114
1.1739116
1.1739111
1.1739113
1.1739113
1.1739112
1.1739116
1.1739114
1.1739113
1.1739115
1.1739115
1.1739115
1.1739115
1.1739113
1.1739104
1.1739106
1.1739108
1.1739103
1.1739105
1.1739105
1.1739103
1.1739109
1.1739106
1.1739104
1.1739113
1.1739119
1.1739121
1.1739121
1.1739121
1.1739121
1.1739119
1.173912
1.1739121
1.1739118
1.173912
1.1739114
1.1739114
1.1739112
1.1739116
1.1739115
1.1739113
1.1739115
1.1739116
1.1739116
1.1739116
1.1739108
1.1739105
1.1739107
1.1739109
1.1739104
1.1739106
1.1739106
1.1739103
1.1739109
1.1739107
1.1739105
1.1739108
1.1739109
1.1739109
1.1739108
1.1739105
1.1739106
1.1739109
1.1739103
1.1739105
1.1739105
1.1739103
1.1739109
1.1739106
1.1739104
1.1739107
1.1739108
1.1739108
1.1739107
1.1739097
1.1739092
1.1739095
1.1739098
1.173909
1.1739094
1.1739094
1.173909
1.1739098
1.1739095
1.1739092
1.1739097
1.1739108
1.1739115
1.1739116
1.1739116
1.1739115
1.1739113
1.1739115
1.1739116
1.1739112
1.1739103
1.1739106
1.1739106
1.1739103
1.1739109
1.1739107
1.1739105
1.1739108
1.1739109
1.1739109
1.1739099
1.1739098
1.1739094
1.1739096
1.1739099
1.1739091
1.1739095
1.1739095
1.1739091
1.1739099
1.1739096
1.1739093
1.1739098
1.1739098
1.1739098
1.1739097
1.1739093
1.1739095
1.1739098
1.173909
1.1739094
1.1739094
1.173909
1.1739098
1.1739095
1.1739092
1.1739097
1.1739098
1.1739098
1.1739083
1.1739082
1.1739076
1.1739079
1.1739083
1.1739073
1.1739078
1.1739078
1.1739073
1.1739084
1.1739079
1.1739076
1.1739082
1.1739083
1.1739098
1.1739108
1.1739108
1.1739108
1.1739105
1.1739107
1.1739109
1.1739099
1.1739091
1.1739095
1.1739095
1.1739091
1.1739099
1.1739096
1.1739093
1.1739098
1.1739099
1.1739085
1.1739085
1.1739083
1.1739077
1.1739081
1.1739085
1.1739075
1.1739079
1.1739079
1.1739074
1.1739085
1.1739081
1.1739077
1.1739083
1.1739084
1.1739084
1.1739083
1.1739077
1.173908
1.1739084
1.1739073
1.1739078
1.1739078
1.1739073
1.1739084
1.1739079
1.1739076
1.1739082
1.1739083
1.1739064
1.1739064
1.1739062
1.1739054
1.1739059
1.1739064
1.1739051
1.1739057
1.1739057
1.1739051
1.1739064
1.1739059
1.1739054
1.1739062
1.1739064
1.1739064
1.1739083
1.1739098
1.1739097
1.1739093
1.1739096
1.173908
1.1739084
1.1739074
1.1739079
1.1739079
1.1739074
1.1739085
1.1739081
1.1739077
1.1739083
1.1739064
1.1739066
1.1739066
1.1739064
1.1739056
1.1739061
1.1739066
1.1739053
1.1739059
1.1739059
1.1739053
1.1739066
1.1739061
1.1739056
1.1739063
1.1739065
1.1739065
1.1739063
1.1739055
1.173906
1.1739065
1.1739052
1.1739058
1.1739058
1.1739051
1.1739065
1.1739059
1.1739054
1.1739062
1.1739038
1.173904
1.173904
1.1739038
1.1739028
1.1739034
1.1739041
1.1739025
1.1739032
1.1739033
1.1739025
1.1739041
1.1739034
1.1739028
1.1739038
1.173904
1.173904
1.1739038
1.1739063
1.1739082
1.1739076
1.1739055
1.173906
1.1739065
1.1739052
1.1739059
1.1739059
1.1739053
1.1739066
1.1739061
1.1739056
1.173903
1.173904
1.1739042
1.1739042
1.173904
1.1739031
1.1739037
1.1739043
1.1739027
1.1739035
1.1739035
1.1739027
1.1739043
1.1739036
1.173903
1.1739039
1.1739041
1.1739041
1.1739039
1.1739029
1.1739035
1.1739042
1.1739026
1.1739033
1.1739033
1.1739025
1.1739041
1.1739034
1.1739028
1.1739
1.173901
1.1739012
1.1739012
1.173901
1.1739
1.1739007
1.1739014
1.1738997
1.1739006
1.1739006
1.1738997
1.1739014
1.1739007
1.1739
1.173901
1.1739013
1.1739013
1.1739011
1.1739001
1.1739029
1.1739035
1.1739042
1.1739026
1.1739034
1.1739034
1.1739027
1.1739043
1.1739036
1.1739009
1.1739002
1.1739013
1.1739015
1.1739015
1.1739013
1.1739002
1.1739009
1.1739017
1.1739
1.1739008
1.1739008
1.1738999
1.1739016
1.1739009
1.1739002
1.1739012
1.1739014
1.1739014
1.1739011
1.1739001
1.1739008
1.1739015
1.1738998
1.1739006
1.1739006
1.1738997
1.1739015
1.1739007
1.1738982
1.1738974
1.1738984
1.1738986
1.1738986
1.1738984
1.1738974
1.1738981
1.1738989
1.1738973
1.1738981
1.1738981
1.1738973
1.1738989
1.1738982
1.1738974
1.1738984
1.1738986
1.1738986
1.1738985
1.1738975
1.1738983
1.1739008
1.1739016
1.1738999
1.1739007
1.1739008
1.1738999
1.1739016
1.1738992
1.1738984
1.1738977
1.1738987
1.1738989
1.1738989
1.1738987
1.1738977
1.1738985
1.1738992
1.1738976
1.1738984
1.1738984
1.1738975
1.1738991
1.1738984
1.1738976
1.1738986
1.1738987
1.1738987
1.1738985
1.1738976
1.1738983
1.173899
1.1738974
1.1738982
1.1738982
1.1738973
1.1738989
1.1738973
1.1738966
1.173896
1.1738966
1.1738967
1.1738967
1.1738966
1.1738959
1.1738966
1.1738972
1.173896
1.1738968
1.1738968
1.173896
1.1738972
1.1738966
1.173896
1.1738967
1.1738967
1.1738968
1.1738967
1.1738961
1.1738968
1.1738974
1.1738991
1.1738975
1.1738984
1.1738984
1.1738975
1.1738963
1.1738975
1.1738969
1.1738963
1.173897
1.173897
1.173897
1.173897
1.1738963
1.1738969
1.1738976
1.1738963
1.1738971
1.1738971
1.1738963
1.1738975
1.1738969
1.1738962
1.1738968
1.1738969
1.1738968
1.1738968
1.1738961
1.1738967
1.1738973
1.1738961
1.1738969
1.1738969
1.1738961
1.1738968
1.1738975
1.1738971
1.1738966
1.173897
1.1738969
1.1738969
1.173897
1.1738966
1.1738971
1.1738974
1.1738968
1.1738973
1.1738973
1.1738968
1.1738975
1.1738971
1.1738966
1.173897
1.1738969
1.173897
1.1738971
1.1738968
1.1738973
1.1738977
1.173897
1.1738962
1.173897
1.173897
1.1738976
1.1738971
1.1738978
1.1738974
1.173897
1.1738973
1.1738972
1.1738973
1.1738973
1.173897
1.1738974
1.1738978
1.1738971
1.1738977
1.1738977
1.1738971
1.1738977
1.1738974
1.1738969
1.1738972
1.1738971
1.1738971
1.1738971
1.1738968
1.1738972
1.1738976
1.1738969
1.1738974
1.1738974
1.1739004
1.1739001
1.1739003
1.1739001
1.1739
1.1739
1.1738999
1.1738999
1.1739
1.1738999
1.1739001
1.1739002
1.1739001
1.1739003
1.1739003
1.1739001
1.1739002
1.1739001
1.1739
1.1739001
1.1739
1.1739
1.1739001
1.1739001
1.1739003
1.1739004
1.1739003
1.1739006
1.1738976
1.1738986
1.1738974
1.1738986
1.1738984
1.1738968
1.1738986
1.1738978
1.1738975
1.1738975
1.1738978
1.1738987
1.1739002
1.1739003
1.1739005
1.1739006
1.1739004
1.1739007
1.1739006
1.1739004
1.1739005
1.1739004
1.1739002
1.1739002
1.1739001
1.1739001
1.1739002
1.1739001
1.1739002
1.1739003
1.1739002
1.1739004
1.1739052
1.1739052
1.1739052
1.1739049
1.173905
1.1739051
1.1739049
1.1739048
1.1739048
1.1739049
1.173905
1.1739049
1.1739048
1.1739052
1.1739052
1.1739052
1.1739052
1.1739049
1.173905
1.1739051
1.1739049
1.1739049
1.1739049
1.173905
1.1739053
1.1739052
1.1739051
1.1739054
1.1739054
1.1739055
1.1739006
1.1739004
1.1739006
1.1739005
1.1739003
1.1739004
1.1739003
1.1739003
1.1739004
1.1739052
1.1739054
1.1739053
1.1739052
1.1739055
1.1739055
1.1739054
1.1739054
1.1739051
1.1739052
1.1739053
1.1739051
1.173905
1.1739049
1.173905
1.1739052
1.1739051
1.1739049
1.1739052
1.1739114
1.1739111
1.1739111
1.1739113
1.1739106
1.1739109
1.1739112
1.1739108
1.1739106
1.1739106
1.1739108
1.1739112
1.1739109
1.1739106
1.1739113
1.1739111
1.1739111
1.1739114
1.1739106
1.1739109
1.1739113
1.1739109
1.1739107
1.1739108
1.1739109
1.1739114
1.1739111
1.1739108
1.1739115
1.1739113
1.1739113
1.1739116
1.1739055
1.1739052
1.1739053
1.1739054
1.1739052
1.1739052
1.1739052
1.173911
1.1739111
1.1739115
1.1739111
1.1739109
1.1739115
1.1739113
1.1739113
1.1739115
1.1739108
1.1739111
1.1739114
1.1739109
1.1739108
1.1739108
1.1739109
1.1739113
1.173911
1.1739107
1.173917
1.1739181
1.1739176
1.1739176
1.173918
1.173917
1.1739174
1.173918
1.1739173
1.1739171
1.1739171
1.1739173
1.173918
1.1739174
1.173917
1.1739181
1.1739176
1.1739176
1.1739181
1.1739171
1.1739175
1.1739181
1.1739174
1.1739172
1.1739173
1.1739174
1.1739181
1.1739175
1.1739172
1.1739182
1.1739177
1.1739178
1.1739182
1.1739172
1.1739109
1.1739112
1.1739115
1.1739111
1.173911
1.1739173
1.1739173
1.1739175
1.1739181
1.1739175
1.1739171
1.1739181
1.1739177
1.1739177
1.1739181
1.1739171
1.1739175
1.173918
1.1739174
1.1739172
1.1739172
1.1739174
1.173918
1.1739175
1.1739244
1.1739239
1.1739251
1.1739245
1.1739245
1.1739251
1.1739239
1.1739244
1.1739251
1.1739244
1.1739243
1.1739243
1.1739244
1.1739252
1.1739245
1.173924
1.1739252
1.1739246
1.1739246
1.1739253
1.173924
1.1739246
1.1739253
1.1739245
1.1739244
1.1739244
1.1739245
1.1739252
1.1739244
1.173924
1.1739251
1.1739245
1.1739245
1.173925
1.1739239
1.1739244
1.1739176
1.1739181
1.1739175
1.1739243
1.1739242
1.1739242
1.1739243
1.173925
1.1739243
1.1739239
1.173925
1.1739244
1.1739244
1.173925
1.1739239
1.1739243
1.1739251
1.1739244
1.1739242
1.1739242
1.1739244
1.1739251
1.1739319
1.1739311
1.1739307
1.1739318
1.1739312
1.1739312
1.1739319
1.1739307
1.1739312
1.173932
1.1739313
1.1739312
1.1739312
1.1739314
1.1739321
1.1739313
1.1739308
1.173932
1.1739314
1.1739314
1.1739321
1.1739309
1.1739314
1.1739321
1.1739314
1.1739313
1.1739313
1.1739313
1.173932
1.1739311
1.1739307
1.1739317
1.173931
1.1739311
1.1739316
1.1739305
1.1739309
1.1739316
1.173925
1.1739212
1.1739208
1.1739203
1.1739203
1.1739208
1.1739212
1.1739279
1.1739316
1.1739309
1.1739304
1.1739315
1.173931
1.1739309
1.1739316
1.1739305
1.1739309
1.1739318
1.1739311
1.1739311
1.1739311
1.1739312
1.173937
1.1739377
1.1739369
1.1739365
1.1739376
1.173937
1.173937
1.1739377
1.1739366
1.173937
1.1739379
1.1739372
1.1739371
1.1739372
1.1739373
1.173938
1.1739372
1.1739367
1.1739379
1.1739373
1.1739373
1.1739379
1.1739368
1.1739372
1.173938
1.1739373
1.1739371
1.1739371
1.1739371
1.1739377
1.1739368
1.1739364
1.1739374
1.1739367
1.1739368
1.1739372
1.1739362
1.1739366
1.1739373
1.1739366
1.173931
1.1739309
1.1739309
1.1739309
1.1739366
1.1739372
1.1739365
1.1739361
1.1739371
1.1739366
1.1739366
1.1739373
1.1739363
1.1739366
1.1739375
1.1739368
1.1739369
1.1739369
1.1739418
1.1739419
1.1739425
1.1739418
1.1739415
1.1739425
1.173942
1.173942
1.1739426
1.1739416
1.1739419
1.1739428
1.1739421
1.1739421
1.1739421
1.1739422
1.1739429
1.1739421
1.1739417
1.1739428
1.1739422
1.1739422
1.1739428
1.1739417
1.1739421
1.1739428
1.1739422
1.173942
1.173942
1.1739419
1.1739426
1.1739416
1.1739413
1.1739422
1.1739416
1.1739416
1.173942
1.173941
1.1739414
1.173942
1.1739414
1.1739413
1.1739365
1.1739365
1.1739413
1.1739414
1.173942
1.1739413
1.173941
1.1739419
1.1739415
1.1739415
1.1739421
1.1739411
1.1739415
1.1739423
1.1739417
1.1739417
1.173946
1.173946
1.1739461
1.1739467
1.1739461
1.1739458
1.1739467
1.1739463
1.1739463
1.1739468
1.1739459
1.1739462
1.173947
1.1739464
1.1739464
1.1739464
1.1739465
1.1739471
1.1739464
1.1739461
1.1739471
1.1739466
1.1739465
1.1739471
1.1739461
1.1739464
1.1739471
1.1739464
1.1739463
1.1739463
1.1739462
1.1739468
1.1739459
1.1739456
1.1739464
1.1739458
1.1739458
1.1739462
1.1739453
1.1739455
1.1739462
1.1739456
1.1739455
1.1739455
1.1739456
1.1739461
1.1739455
1.1739452
1.1739461
1.1739457
1.1739457
1.1739462
1.1739454
1.1739457
1.1739465
1.1739459
1.1739496
1.1739496
1.1739497
1.1739498
1.1739504
1.1739498
1.1739495
1.1739504
1.17395
1.17395
1.1739505
1.1739496
1.1739499
1.1739506
1.1739501
1.1739501
1.1739501
1.1739502
1.1739508
1.1739501
1.1739498
1.1739507
1.1739503
1.1739502
1.1739507
1.1739498
1.1739501
1.1739507
1.1739501
1.17395
1.1739499
1.1739499
1.1739504
1.1739495
1.1739493
1.17395
1.1739495
1.1739495
1.1739498
1.173949
1.1739492
1.1739498
1.1739492
1.1739492
1.1739492
1.1739492
1.1739497
1.1739492
1.1739489
1.1739497
1.1739494
1.1739494
1.1739499
1.1739491
1.1739494
1.1739501
1.1739532
1.1739527
1.1739527
1.1739528
1.1739529
1.1739534
1.1739529
1.1739527
1.1739535
1.1739531
1.1739531
1.1739536
1.1739528
1.173953
1.1739537
1.1739532
1.1739532
1.1739532
1.1739533
1.1739538
1.1739532
1.173953
1.1739538
1.1739534
1.1739534
1.1739538
1.1739529
1.1739532
1.1739537
1.1739532
1.1739531
1.173953
1.1739529
1.1739535
1.1739527
1.1739525
1.1739531
1.1739526
1.1739527
1.1739529
1.1739521
1.1739524
1.1739529
1.1739524
1.1739523
1.1739523
1.1739523
1.1739528
1.1739523
1.1739521
1.1739529
1.1739526
1.1739525
1.173953
1.1739523
1.1739525
1.1739551
1.1739557
1.1739552
1.1739553
1.1739553
1.1739554
1.1739559
1.1739555
1.1739553
1.1739561
1.1739558
1.1739558
1.1739562
1.1739555
1.1739557
1.1739563
1.1739558
1.1739557
1.1739558
1.1739558
1.1739563
1.1739558
1.1739556
1.1739564
1.173956
1.173956
1.1739564
1.1739556
1.1739558
1.1739563
1.1739558
1.1739557
1.1739556
1.1739555
1.173956
1.1739553
1.1739551
1.1739558
1.1739553
1.1739553
1.1739556
1.1739548
1.173955
1.1739555
1.173955
1.173955
1.173955
1.173955
1.1739555
1.173955
1.1739548
1.1739555
1.1739553
1.1739552
1.1739556
1.1739549
1.1739572
1.1739572
1.1739578
1.1739573
1.1739573
1.1739574
1.1739574
1.1739579
1.1739576
1.1739574
1.1739583
1.173958
1.173958
1.1739584
1.1739576
1.1739579
1.1739584
1.1739578
1.1739578
1.1739578
1.1739579
1.1739584
1.173958
1.1739577
1.1739585
1.1739582
1.1739582
1.1739585
1.1739577
1.173958
1.1739584
1.1739578
1.1739577
1.1739577
1.1739576
1.1739582
1.1739576
1.1739574
1.173958
1.1739576
1.1739576
1.1739578
1.1739571
1.1739573
1.1739577
1.1739572
1.1739571
1.1739571
1.1739572
1.1739577
1.1739573
1.1739571
1.1739578
1.1739576
1.1739575
1.1739579
1.1739597
1.173959
1.1739589
1.1739593
1.1739589
1.173959
1.173959
1.173959
1.1739594
1.1739592
1.1739592
1.1739601
1.1739598
1.1739598
1.1739602
1.1739595
1.1739596
1.1739601
1.1739595
1.1739594
1.1739594
1.1739595
1.1739601
1.1739598
1.1739596
1.1739603
1.17396
1.17396
1.1739603
1.1739596
1.1739597
1.1739601
1.1739595
1.1739594
1.1739593
1.1739593
1.1739599
1.1739594
1.1739593
1.1739599
1.1739595
1.1739595
1.1739598
1.1739591
1.1739592
1.1739596
1.1739592
1.173959
1.1739589
1.173959
1.1739595
1.1739592
1.173959
1.1739598
1.1739595
1.1739594
1.1739605
1.1739609
1.1739602
1.17396
1.1739603
1.1739599
1.17396
1.1739601
1.17396
1.1739604
1.1739602
1.1739603
1.1739612
1.1739608
1.1739608
1.1739612
1.1739605
1.1739607
1.173961
1.1739604
1.1739603
1.1739603
1.1739605
1.173961
1.1739608
1.1739605
1.1739613
1.1739609
1.1739609
1.1739613
1.1739605
1.1739608
1.173961
1.1739604
1.1739603
1.1739603
1.1739603
1.1739609
1.1739606
1.1739604
1.1739609
1.1739606
1.1739606
1.1739609
1.1739602
1.1739603
1.1739605
1.1739603
1.1739601
1.17396
1.1739601
1.1739606
1.1739604
1.1739602
1.1739609
1.1739605
1.1739612
1.1739612
1.1739612
1.1739606
1.1739608
1.1739606
1.1739606
1.1739606
1.1739607
1.1739609
1.1739608
1.1739614
1.1739614
1.1739614
1.1739615
1.1739609
1.1739612
1.1739613
1.173961
1.173961
1.173961
1.173961
1.1739614
1.1739613
1.173961
1.1739616
1.1739615
1.1739615
1.1739616
1.173961
1.1739613
1.1739614
1.173961
1.173961
1.173961
1.1739609
1.1739613
1.1739611
1.1739608
1.1739613
1.1739613
1.1739612
1.1739613
1.1739606
1.1739611
1.1739612
1.1739608
1.1739607
1.1739607
1.1739607
1.173961
1.173961
1.1739607
1.1739612
1.1739608
1.1739606
1.1739599
1.1739586
1.1739568
1.1739552
1.1739541
1.1739543
1.1739556
1.1739571
1.1739587
1.1739599
1.1739607
1.1739608
1.1739597
1.1739587
1.1739565
1.1739526
1.1739501
1.1739477
1.1739475
1.1739497
1.1739523
1.1739564
1.1739587
1.1739596
1.1739607
1.1739607
1.1739601
1.1739603
1.1739594
1.1739597
1.1739592
1.1739594
1.1739592
1.1739591
1.1739592
1.1739592
1.1739599
1.1739603
1.17396
1.1739591
1.1739594
1.1739587
1.1739596
1.1739594
1.1739585
1.173958
1.1739582
1.1739591
1.1739595
1.1739597
1.1739608
1.1739607
1.1739601
1.1739603
1.1739595
1.1739593
1.1739592
1.1739592
1.17396
1.1739587
1.1739586
1.1739587
1.1739586
1.1739583
1.1739589
1.1739591
1.1739603
1.1739611
1.1739609
1.17396
1.173959
1.173958
1.1739581
1.1739583
1.1739591
1.1739592
1.1739602
1.1739595
1.1739595
1.1739596
1.1739605
1.1739602
1.1739596
1.1739585
1.1739585
1.1739588
1.1739593
1.17396
1.1739591
1.1739586
1.1739571
1.1739573
1.1739569
1.1739573
1.1739579
1.1739576
1.1739579
1.1739559
1.1739535
1.173953
1.1739534
1.1739559
1.1739554
1.1739536
1.1739552
1.1739528
1.1739525
1.1739529
1.1739554
1.173955
1.1739526
1.1739523
1.1739547
1.1739567
1.1739582
1.1739564
1.1739572
1.1739584
1.173955
1.1739573
1.1739557
1.1739534
1.1739511
1.1739556
1.1739549
1.1739492
1.1739506
1.1739525
1.1739406
1.1739483
1.1739542
1.1739574
1.1739587
1.1739572
1.1739557
1.1739535
1.1739568
1.1739572
1.1739583
1.1739609
1.1739609
1.173961
1.173961
1.173961
1.173961
1.1739584
1.1739585
1.1739581
1.1739581
1.1739584
1.173957
1.1739567
1.1739552
1.1739556
1.1739575
1.1739591
1.173956
1.1739504
1.1739331
1.1739298
1.1739285
1.1739285
1.1739297
1.173933
1.1739373
1.1739413
1.1739471
1.1739471
1.1739414
1.1739373
1.1739332
1.1739299
1.1739287
1.1739287
1.1739299
1.1739332
1.1739372
1.1739413
1.173947
1.1739471
1.1739523
1.173957
1.1739596
1.1739605
1.1739607
1.1739598
1.1739597
1.1739596
1.1739598
1.1739607
1.1739604
1.1739595
1.173957
1.1739524
1.1739473
1.173947
1.1739416
1.1739375
1.1739334
1.17393
1.1739288
1.1739288
1.1739298
1.1739331
1.1739372
1.1739413
1.1739468
1.1739471
1.1739414
1.1739375
1.1739328
1.1739248
1.173922
1.1739282
1.1739406
1.1739502
1.17395
1.1739402
1.1739278
1.173922
1.173925
1.173933
1.1739377
1.1739498
1.1739554
1.1739586
1.1739581
1.1739542
1.1739477
1.1739302
1.1739335
1.1739297
1.1739241
1.1739276
1.1739416
1.1739531
1.1739674
1.1739802
1.173991
1.1739971
1.1739973
1.1739913
1.1739808
1.1739681
1.1739539
1.1739422
1.173928
1.1739537
1.173975
1.1739954
1.1740144
1.1740293
1.1740376
1.1740374
1.1740289
1.1740137
1.1739946
1.173974
1.1739528
1.173967
1.1739393
1.1739252
1.173927
1.1739265
1.1739289
1.1739289
1.1739477
1.1739542
1.1739581
1.1739587
1.1739553
1.1739497
1.1739332
1.17393
1.1739269
1.1739265
1.1739271
1.1739271
1.1739487
1.17399
1.1739794
1.1740132
1.1739943
1.174021
1.1740458
1.1740658
1.1740771
1.1740773
1.1740663
1.1740466
1.1740221
1.1739955
1.173968
1.1739402
1.1739808
1.1740146
1.1740468
1.1740774
1.174102
1.1741158
1.1741157
1.1741015
1.1740765
1.1740456
1.1740656
1.1740283
1.1740368
1.1739961
1.1739963
1.1739488
1.1739904
1.1740289
1.174037
1.1740772
1.1740769
1.1741157
1.1741014
1.174131
1.1741479
1.1741481
1.1741316
1.1741024
1.1740669
1.1740299
1.1739915
1.1739498
1.1739977
1.1740384
1.1740782
1.1741167
1.1741487
1.1741672
1.174167
1.1741481
1.1741484
1.1741161
1.1741023
1.1740663
1.1740466
1.174014
1.1739799
1.1739395
1.1739252
1.1739239
1.1739295
1.1739326
1.1739373
1.1739413
1.173938
1.1739307
1.1739246
1.1739216
1.1739275
1.1739532
1.1739674
1.1739951
1.174022
1.1740469
1.1740777
1.1741028
1.174132
1.174149
1.1741674
1.1741676
1.174149
1.174117
1.1740784
1.1740386
1.1739977
1.1739498
1.1739917
1.1740303
1.1740674
1.1741032
1.1741325
1.1741492
1.1741172
1.174117
1.1740783
1.174067
1.1740297
1.1740145
1.1739953
1.1739745
1.1739533
1.1739417
1.1739275
1.1739397
1.1739677
1.1739804
1.1739911
1.1739973
1.1740382
1.1740382
1.1740784
1.1740673
1.1741032
1.1740784
1.1740475
1.1740151
1.173981
1.17394
1.1739682
1.1739959
1.1740227
1.1740474
1.1740148
1.1740299
1.1739912
1.1739973
1.1739492
1.1739492
1.1739271
1.1739251
1.1739239
1.1739246
1.1739326
1.173938
1.1739436
1.1739334
1.1739301
1.1739121
1.1739109
1.1738976
1.1738983
1.1738987
1.1738979
1.1739118
1.1739134
1.173931
1.1739416
1.1739382
1.1739437
1.1739383
1.173933
1.1739297
1.1739271
1.1739267
1.1739267
1.1739271
1.1739295
1.1739327
1.173938
1.1739435
1.173938
1.1739308
1.1739248
1.1739242
1.1739257
1.1739278
1.1739277
1.1739256
1.1739242
1.173925
1.173931
1.1739321
1.1739312
1.173914
1.1739123
1.1738991
1.1739
1.1738998
1.1738992
1.1739122
1.1739137
1.1739312
1.1739346
1.1739386
1.1739309
1.1739321
1.1739215
1.1739211
1.1739246
1.1739224
1.173914
1.1739262
1.1739389
1.1739303
1.1739194
1.1739155
1.1739216
1.1739134
1.1739212
1.1739118
1.1739295
1.1739241
1.1739253
1.1739269
1.1739263
1.1739272
1.1739272
1.1739263
1.1739267
1.1739251
1.1739238
1.1739276
1.1739419
1.1739535
1.1739679
1.1739806
1.1739397
1.1739275
1.1739215
1.1739245
1.1739326
1.1739293
1.1739111
1.1738978
1.1738986
1.1738988
1.1738982
1.1739138
1.1739222
1.1739247
1.1739192
1.1739355
1.1739111
1.1739281
1.1739325
1.1739469
1.1739635
1.1739468
1.1739325
1.1739645
1.1739774
1.1739382
1.1739571
1.1739699
1.1739568
1.1739574
1.1740002
1.1739996
1.1739812
1.1740065
1.1739812
1.1739571
1.17393
1.173938
1.1739574
1.1739774
1.1740006
1.1739567
1.1739698
1.1739999
1.174014
1.1739784
1.1739385
1.1739263
1.1739261
1.1739137
1.1739222
1.1739244
1.1739207
1.1739126
1.1739211
1.1739149
1.1739189
1.1739299
1.1739385
1.173985
1.173985
1.1739718
1.1739629
1.1739814
1.1740124
1.1740225
1.1740225
1.1740631
1.1740517
1.1740317
1.1740316
1.1740031
1.1740313
1.1740315
1.1740635
1.1740651
1.1740912
1.1740511
1.1740118
1.173963
1.1739783
1.1739847
1.1739715
1.173981
1.1740214
1.1740216
1.1740135
1.1740511
1.1740622
1.1740633
1.1741063
1.1741027
1.1740884
1.174119
1.1740888
1.1740916
1.1740518
1.1740644
1.1741073
1.1741036
1.1741367
1.1741426
1.1741237
1.174142
1.1741361
1.1741555
1.1741629
1.1741634
1.1741413
1.1741041
1.1740598
1.1740475
1.1740272
1.1739999
1.1739935
1.1740204
1.1740573
1.1740206
1.1740274
1.1740613
1.1740883
1.1740864
1.1740428
1.1740554
1.1741031
1.1741028
1.1740527
1.1739752
1.1739172
1.1739118
1.1739026
1.1739077
1.1739191
1.1739188
1.1739299
1.1739379
1.1739378
1.1739141
1.1739262
1.1739222
1.1739246
1.1739213
1.1739216
1.1739154
1.1739191
1.17393
1.1739387
1.1739846
1.1739714
1.1739807
1.1739627
1.173978
1.1740131
1.1740215
1.1740213
1.1740114
1.1739997
1.1739564
1.1739694
1.1739566
1.1739377
1.1739568
1.1739767
1.1739804
1.1739991
1.1740308
1.1740507
1.174062
1.1740631
1.1740506
1.1740907
1.1741062
1.1741026
1.1740879
1.1740627
1.1740644
1.1740306
1.1740023
1.1740057
1.1740307
1.1740307
1.1740508
1.1740908
1.1741232
1.1741418
1.174136
1.1741184
1.1741362
1.1741553
1.1741627
1.174142
1.1741065
1.1741027
1.174088
1.1740506
1.174062
1.1740634
1.1740214
1.1740113
1.1739997
1.1739766
1.1739638
1.173932
1.1739463
1.173935
1.1739189
1.1739107
1.1739277
1.1739319
1.1739461
1.1739627
1.1739803
1.1739562
1.1739294
1.1739373
1.1739568
1.1739558
1.1739688
1.1739988
1.1740128
1.1739772
1.1739379
1.1739619
1.1739806
1.1739708
1.1739838
1.1740212
1.1740214
1.1740623
1.1741031
1.1741365
1.1741557
1.1741559
1.174137
1.1741039
1.1740633
1.1740226
1.1740225
1.1739717
1.1739816
1.1739632
1.1739786
1.1740144
1.1740129
1.1740011
1.1739568
1.17397
1.1740003
1.1739816
1.1739572
1.1739382
1.1739578
1.173978
1.174004
1.1740325
1.1740524
1.1740647
1.1741076
1.1740925
1.1740896
1.1740522
1.1740324
1.1740645
1.1740664
1.1740326
1.1740324
1.1740072
1.1739815
1.1739957
1.1739751
1.1739536
1.1739467
1.1739322
1.173928
1.1739649
1.1739636
1.1739467
1.1739188
1.1739352
1.1739106
1.1739324
1.1739382
1.1739779
1.1739579
1.1740011
1.1740002
1.1739698
1.1739297
1.173957
1.1739569
1.1739632
1.1740129
1.1740526
1.1740927
1.1741248
1.174143
1.1741633
1.1741432
1.1741372
1.1741199
1.1740897
1.1741042
1.174108
1.174065
1.1740635
1.1740523
1.1740142
1.1740225
1.1740228
1.173982
1.1739719
1.1739383
1.1739783
1.1739848
1.1739848
1.1740224
1.1740634
1.1741041
1.1741371
1.1741431
1.1741632
1.1741425
1.1741244
1.1741195
1.1740889
1.1740919
1.1741069
1.1740638
1.1740517
1.1740513
1.1740317
1.174064
1.1740893
1.1740924
1.174108
1.174065
1.1740524
1.174052
1.174032
1.1740323
1.1740659
1.1740319
1.1740036
1.1740067
1.173981
1.1739995
1.1740133
1.174012
1.1740216
1.173981
1.1739708
1.173938
1.1739839
1.1739776
1.1739624
1.1739562
1.1740005
1.1739575
1.1739776
1.1739378
1.1739296
1.1739692
1.1739566
1.1739463
1.1739632
1.1739811
1.1739999
1.174014
1.1740127
1.1740228
1.173982
1.173972
1.1739383
1.1739782
1.1739631
1.1739569
1.174001
1.1739578
1.1739776
1.173938
1.1739297
1.1739697
1.1739568
1.1739465
1.1739188
1.1739323
1.1739646
1.1739279
1.173932
1.1739188
1.173935
1.1739105
1.1739148
1.1739189
1.1739184
1.1739297
1.1739374
1.1739372
1.1739293
1.1739183
1.1739191
1.1739186
1.1739297
1.1739116
1.1739171
1.1739749
1.1739494
1.1739404
1.173916
1.173904
1.1739357
1.1739493
1.1739551
1.1739568
1.1739583
1.1739567
1.1739578
1.1739559
1.1739573
1.1739574
1.173957
1.1739573
1.1739558
1.1739536
1.1739513
1.1739528
1.1739508
1.1739352
1.173935
1.1739355
1.1739411
1.1739478
1.1739533
1.1739479
1.1739484
1.1739526
1.1739572
1.1739594
1.1739586
1.1739552
1.173953
1.1739513
1.1739495
1.1739513
1.1739551
1.1739486
1.1739486
1.1739551
1.173959
1.1739589
1.1739571
1.1739572
1.1739552
1.1739567
1.1739571
1.1739557
1.1739576
1.1739592
1.173956
1.1739504
1.1739526
1.1739572
1.1739595
1.1739597
1.1739588
1.1739565
1.1739523
1.1739497
1.1739475
1.1739475
1.1739497
1.1739523
1.1739565
1.1739587
1.1739599
1.1739611
1.1739609
1.17396
1.1739587
1.173957
1.1739553
1.1739541
1.1739541
1.1739553
1.173957
1.1739587
1.17396
1.1739608
1.1739609
1.1739604
1.1739602
1.1739594
1.1739594
1.17396
1.1739594
1.1739596
1.1739582
1.1739574
1.173957
1.1739573
1.1739554
1.1739551
1.1739547
1.1739547
1.173955
1.1739553
1.173953
1.1739503
1.173947
1.1739467
1.1739468
1.1739474
1.1739507
1.1739502
1.1739506
1.1739473
1.1739469
1.1739453
1.1739467
1.17395
1.1739497
1.1739501
1.1739468
1.1739466
1.1739498
1.1739494
1.1739462
1.1739453
1.1739456
1.1739465
1.1739439
1.1739469
1.1739485
1.1739513
1.1739494
1.1739516
1.1739549
1.1739536
1.1739513
1.1739509
1.173953
1.1739473
1.1739492
1.1739472
1.1739454
1.1739434
1.1739483
1.1739487
1.1739452
1.1739426
1.1739412
1.1739326
1.1739378
1.1739416
1.1739445
1.1739453
1.1739485
1.17395
1.1739528
1.1739552
1.1739536
1.1739513
1.1739495
1.1739526
1.1739549
1.1739516
1.1739492
1.1739537
1.1739515
1.1739528