/*--------------------------------*- C++ -*----------------------------------*\
  =========                 |
  \\      /  F ield         | OpenFOAM: The Open Source CFD Toolbox
   \\    /   O peration     | Website:  https://openfoam.org
    \\  /    A nd           | Version:  7
     \\/     M anipulation  |
\*---------------------------------------------------------------------------*/
FoamFile
{
    version     2.0;
    format      ascii;
    class       volScalarField;
    location    "300";
    object      T;
}
// * * * * * * * * * * * * * * * * * * * * * * * * * * * * * * * * * * * * * //

dimensions      [0 0 0 1 0 0 0];

internalField   nonuniform List<scalar> 
24866
(
299.99997
299.99996
299.99996
299.99998
300
300
300
300
300
300
300
300
300
300
300
300
300
300
300
300
300
300
300
300
300
300
300
300
300
300
300
300
300
300
300
300
300
300
300
300
300
300
300
300
300
300
300
300
300
300
300
300
300
300
300
300
300
300
300
300
300
300
300
300
300
300
300
300
300
300
300
300
300
300
300
300
300
300
300
300
300
300
300
300
300
300
300
300
300
300
300
300
300
300
300
300
300
300
300
300
300
300
300
300
300
300
300
300
300
300
300
300
300
300
300
300
300
300
300
300
300
300
300
300
300
300
300
300
300
300
300
300.00001
300.00001
300.00001
300.00001
300
300
300
300
300
300
300
300
300
300
300
299.99999
299.99998
299.99998
299.99998
299.99998
299.99999
299.99998
300
299.99999
299.99998
299.99998
299.99999
299.99998
299.99999
299.99998
299.99998
299.99998
299.99998
299.99998
299.99998
299.99998
299.99999
299.99998
299.99998
299.99998
299.99998
299.99998
299.99998
299.99998
299.99998
299.99998
299.99998
299.99999
299.99999
299.99999
300
299.99999
299.99998
299.99999
299.99999
300
300
300
300
300
300
300
300
300
300
300
300.00001
300.00001
300.00001
300.00001
300.00001
300
300
300
300
300
300
299.99999
299.99999
299.99999
300
299.99998
299.99999
299.99997
299.99996
299.99996
299.99996
299.99996
299.99997
299.99996
299.99996
299.99997
299.99997
299.99997
299.99997
299.99996
299.99996
299.99996
299.99996
299.99996
299.99996
299.99996
299.99996
299.99996
299.99996
299.99996
299.99996
299.99996
299.99996
299.99996
299.99996
299.99996
299.99993
299.99992
299.99993
299.99993
299.99992
299.99996
299.99998
299.99998
299.99998
299.99998
299.99998
299.99998
299.99998
299.99998
299.99998
299.99998
299.99999
299.99998
299.99998
299.99998
299.99998
299.99998
299.99998
299.99999
300
300
299.99999
299.99999
299.99999
299.99999
299.99998
299.99999
299.99999
299.99999
299.99999
299.99998
299.99999
299.99999
299.99999
299.99999
300
300
300
300
300
300
300
300
300.00001
300
300.00001
300.00001
300
300
300
300
300
300
300
300
300
300
300
300
300
300
300
300
300
300
300
300
300
300
300
300
300
300
300
300
300
300
300
300
300
300
300
300
300
299.99999
299.99999
300
299.99999
299.99999
299.99998
299.99997
299.99996
299.99996
299.99996
299.99996
299.99998
299.99999
299.99999
299.99999
299.99999
299.99999
299.99999
299.99998
299.99999
299.99998
299.99997
299.99997
299.99997
299.99997
299.99996
299.99996
299.99993
299.99993
299.99993
299.99993
299.99993
299.99993
299.99993
299.99993
299.99993
299.99993
299.99994
299.99994
299.99994
299.99993
299.99993
299.99993
299.99993
299.99993
299.99993
299.99993
299.99993
299.99993
299.99993
299.99993
299.99993
299.99993
299.99993
299.99993
299.99993
299.99989
299.99989
299.99988
299.99988
299.99988
299.99988
299.99989
299.99993
299.99996
299.99996
299.99996
299.99996
299.99996
299.99996
299.99996
299.99996
299.99996
299.99996
299.99996
299.99996
299.99996
299.99993
299.99993
299.99993
299.99993
299.99993
299.99994
299.99994
299.99994
299.99994
299.99993
299.99989
299.99989
299.9999
299.99989
299.99989
299.99989
299.99989
299.9999
299.99989
299.99989
299.9999
299.9999
299.9999
299.9999
299.99989
299.99989
299.99989
299.99989
299.99989
299.99989
299.99988
299.99989
299.99989
299.99989
299.99989
299.99989
299.99989
299.99989
299.99989
299.99983
299.99983
299.99983
299.99982
299.99983
299.99983
299.99982
299.99983
299.99983
299.99983
299.99989
299.99993
299.99993
299.99993
299.99993
299.99993
299.99993
299.99993
299.99993
299.99993
299.99993
299.99989
299.99989
299.99989
299.9999
299.9999
299.9999
299.9999
299.9999
299.9999
299.9999
299.99985
299.99984
299.99984
299.99984
299.99983
299.99983
299.99983
299.99983
299.99984
299.99984
299.99984
299.99985
299.99985
299.99985
299.99985
299.99984
299.99984
299.99984
299.99983
299.99983
299.99983
299.99983
299.99984
299.99983
299.99983
299.99984
299.99984
299.99984
299.99984
299.99977
299.99976
299.99976
299.99976
299.99975
299.99975
299.99975
299.99975
299.99976
299.99976
299.99976
299.99977
299.99984
299.99989
299.99989
299.99989
299.99989
299.99989
299.99989
299.99989
299.99989
299.99983
299.99983
299.99983
299.99983
299.99984
299.99984
299.99984
299.99985
299.99985
299.99985
299.99979
299.99978
299.99977
299.99977
299.99977
299.99976
299.99976
299.99976
299.99976
299.99977
299.99977
299.99977
299.99978
299.99978
299.99978
299.99978
299.99977
299.99977
299.99977
299.99975
299.99975
299.99975
299.99975
299.99976
299.99976
299.99976
299.99977
299.99977
299.99977
299.99968
299.99967
299.99965
299.99965
299.99965
299.99964
299.99964
299.99964
299.99964
299.99965
299.99965
299.99966
299.99967
299.99968
299.99977
299.99984
299.99984
299.99984
299.99984
299.99984
299.99984
299.99976
299.99975
299.99975
299.99976
299.99976
299.99977
299.99977
299.99977
299.99978
299.99979
299.99969
299.99969
299.99968
299.99967
299.99967
299.99967
299.99965
299.99965
299.99965
299.99965
299.99967
299.99967
299.99967
299.99968
299.99969
299.99969
299.99968
299.99967
299.99966
299.99966
299.99965
299.99965
299.99965
299.99964
299.99966
299.99965
299.99966
299.99967
299.99968
299.99955
299.99955
299.99954
299.99952
299.99952
299.99952
299.9995
299.9995
299.9995
299.9995
299.99952
299.99952
299.99952
299.99954
299.99955
299.99955
299.99968
299.99977
299.99977
299.99976
299.99976
299.99966
299.99966
299.99965
299.99965
299.99965
299.99965
299.99967
299.99967
299.99967
299.99968
299.99956
299.99957
299.99957
299.99956
299.99954
299.99953
299.99954
299.99952
299.99952
299.99952
299.99952
299.99954
299.99953
299.99954
299.99955
299.99956
299.99956
299.99955
299.99953
299.99953
299.99953
299.99951
299.99951
299.99951
299.99951
299.99952
299.99952
299.99952
299.99954
299.99937
299.99938
299.99938
299.99937
299.99935
299.99935
299.99935
299.99933
299.99933
299.99933
299.99933
299.99935
299.99935
299.99935
299.99937
299.99938
299.99938
299.99938
299.99954
299.99967
299.99966
299.99953
299.99952
299.99953
299.99951
299.99951
299.99951
299.99951
299.99953
299.99953
299.99954
299.99937
299.99939
299.9994
299.9994
299.99939
299.99938
299.99937
299.99937
299.99935
299.99935
299.99935
299.99935
299.99937
299.99937
299.99937
299.99939
299.9994
299.9994
299.99939
299.99937
299.99936
299.99936
299.99934
299.99934
299.99934
299.99934
299.99935
299.99935
299.99936
299.99917
299.99918
299.99919
299.99919
299.99918
299.99917
299.99916
299.99916
299.99915
299.99915
299.99915
299.99915
299.99916
299.99916
299.99917
299.99918
299.99919
299.99919
299.99919
299.99918
299.99936
299.99936
299.99936
299.99934
299.99934
299.99935
299.99935
299.99937
299.99937
299.99918
299.99919
299.9992
299.99921
299.99921
299.99921
299.99919
299.99918
299.99918
299.99918
299.99917
299.99917
299.99917
299.99918
299.99918
299.99919
299.9992
299.99921
299.99921
299.9992
299.99918
299.99917
299.99917
299.99916
299.99916
299.99916
299.99916
299.99917
299.99916
299.99899
299.999
299.999
299.999
299.999
299.99899
299.99899
299.99899
299.99898
299.99899
299.99898
299.99898
299.99899
299.99898
299.99899
299.999
299.999
299.999
299.999
299.999
299.999
299.999
299.99917
299.99917
299.99916
299.99916
299.99917
299.99917
299.99918
299.99901
299.99901
299.99902
299.99902
299.99902
299.99902
299.99902
299.99902
299.99901
299.99901
299.99902
299.99901
299.99901
299.99902
299.99901
299.99901
299.99902
299.99902
299.99902
299.99901
299.99901
299.99901
299.999
299.999
299.999
299.999
299.99899
299.999
299.99899
299.99889
299.9989
299.99891
299.99889
299.99887
299.99887
299.99888
299.9989
299.99889
299.99888
299.99891
299.9989
299.9989
299.99891
299.99888
299.99889
299.9989
299.99888
299.99888
299.99888
299.99889
299.99891
299.99891
299.9989
299.999
299.99901
299.999
299.99901
299.99901
299.99894
299.99891
299.99892
299.99893
299.99891
299.99891
299.99891
299.99892
299.99893
299.99892
299.99892
299.99894
299.99893
299.99893
299.99894
299.99891
299.99892
299.99893
299.99891
299.9989
299.99889
299.9989
299.99892
299.99891
299.9989
299.99893
299.99892
299.99891
299.99892
299.99899
299.99895
299.99896
299.99897
299.99894
299.99892
299.99892
299.99894
299.99896
299.99895
299.99894
299.99898
299.99898
299.99898
299.99898
299.99895
299.99896
299.99897
299.99894
299.99892
299.99893
299.99895
299.99898
299.99897
299.99897
299.99901
299.99893
299.99893
299.99893
299.999
299.99901
299.99898
299.99899
299.999
299.99897
299.99896
299.99896
299.99897
299.999
299.99899
299.99898
299.99902
299.99901
299.99901
299.99902
299.99898
299.99898
299.99899
299.99896
299.99894
299.99894
299.99896
299.99898
299.99897
299.99896
299.999
299.99899
299.99899
299.99923
299.99924
299.9992
299.99921
299.99921
299.99918
299.99916
299.99916
299.99918
299.9992
299.9992
299.99919
299.99923
299.99922
299.99922
299.99923
299.99919
299.9992
299.99921
299.99918
299.99916
299.99917
299.99919
299.99922
299.99922
299.99921
299.99925
299.99925
299.999
299.99886
299.99872
299.99887
299.99874
299.9986
299.99881
299.99872
299.99865
299.99865
299.99872
299.99882
299.99903
299.99924
299.99924
299.99923
299.99927
299.99926
299.99926
299.99926
299.99922
299.99923
299.99923
299.9992
299.99918
299.99918
299.9992
299.99922
299.99922
299.99921
299.99924
299.99924
299.99962
299.99962
299.99963
299.99959
299.99959
299.9996
299.99957
299.99955
299.99955
299.99956
299.99959
299.99959
299.99958
299.99961
299.99961
299.99961
299.99962
299.99958
299.99959
299.99959
299.99957
299.99955
299.99956
299.99958
299.99961
299.99961
299.9996
299.99964
299.99964
299.99964
299.99925
299.99926
299.99922
299.99924
299.99924
299.99922
299.9992
299.9992
299.99922
299.9996
299.99963
299.99963
299.99962
299.99965
299.99965
299.99964
299.99965
299.99961
299.99962
299.99962
299.99959
299.99957
299.99957
299.99958
299.99961
299.9996
299.99959
299.99963
300.00011
300.00011
300.00011
300.00011
300.00007
300.00008
300.00008
300.00005
300.00003
300.00003
300.00004
300.00007
300.00007
300.00007
300.0001
300.0001
300.0001
300.0001
300.00007
300.00008
300.00007
300.00005
300.00004
300.00004
300.00006
300.00009
300.00009
300.00009
300.00012
300.00012
300.00012
300.00013
299.99965
299.99961
299.99962
299.99963
299.9996
299.99959
299.99959
300.00007
300.00008
300.00011
300.00011
300.0001
300.00013
300.00013
300.00013
300.00013
300.00009
300.0001
300.0001
300.00007
300.00005
300.00005
300.00006
300.00009
300.00009
300.00008
300.00063
300.00066
300.00066
300.00066
300.00066
300.00063
300.00064
300.00063
300.00061
300.00059
300.00059
300.0006
300.00063
300.00063
300.00063
300.00065
300.00065
300.00065
300.00065
300.00063
300.00063
300.00063
300.00061
300.0006
300.0006
300.00062
300.00064
300.00065
300.00064
300.00067
300.00067
300.00067
300.00067
300.00065
300.0001
300.00011
300.00011
300.00008
300.00007
300.00062
300.00062
300.00063
300.00065
300.00066
300.00065
300.00067
300.00067
300.00067
300.00067
300.00065
300.00065
300.00064
300.00062
300.00061
300.00061
300.00062
300.00064
300.00064
300.00124
300.00123
300.00125
300.00125
300.00125
300.00124
300.00123
300.00123
300.00122
300.00121
300.00121
300.00121
300.00121
300.00122
300.00123
300.00123
300.00124
300.00125
300.00125
300.00124
300.00123
300.00123
300.00123
300.00121
300.00121
300.00121
300.00122
300.00123
300.00124
300.00124
300.00125
300.00125
300.00125
300.00125
300.00124
300.00124
300.00066
300.00065
300.00063
300.00123
300.00122
300.00122
300.00122
300.00123
300.00124
300.00124
300.00125
300.00125
300.00125
300.00125
300.00124
300.00124
300.00123
300.00122
300.00121
300.00121
300.00122
300.00123
300.0018
300.00181
300.00181
300.00182
300.00182
300.00182
300.00181
300.00181
300.00181
300.0018
300.0018
300.0018
300.0018
300.0018
300.0018
300.00182
300.00181
300.00182
300.00182
300.00182
300.00182
300.00181
300.00181
300.0018
300.0018
300.0018
300.0018
300.0018
300.0018
300.00181
300.00181
300.00181
300.00182
300.00182
300.00181
300.00181
300.00181
300.0018
300.00124
300.00113
300.00106
300.00103
300.00103
300.00106
300.00112
300.00174
300.0018
300.00181
300.0018
300.00181
300.00182
300.00182
300.00181
300.00181
300.00181
300.0018
300.0018
300.0018
300.0018
300.0018
300.00232
300.00232
300.00233
300.00233
300.00233
300.00234
300.00234
300.00233
300.00233
300.00233
300.00232
300.00233
300.00233
300.00233
300.00233
300.00233
300.00234
300.00234
300.00233
300.00234
300.00234
300.00233
300.00233
300.00233
300.00232
300.00232
300.00232
300.00232
300.00232
300.00232
300.00233
300.00232
300.00232
300.00233
300.00232
300.00232
300.00232
300.00232
300.00231
300.00231
300.0018
300.0018
300.0018
300.0018
300.00231
300.0023
300.00231
300.00231
300.00231
300.00232
300.00232
300.00232
300.00232
300.00232
300.00231
300.00232
300.00232
300.00232
300.00278
300.00278
300.00278
300.00279
300.00279
300.00279
300.00279
300.00279
300.00279
300.00279
300.00279
300.00278
300.00279
300.00279
300.00279
300.00279
300.00278
300.0028
300.0028
300.00279
300.0028
300.0028
300.00279
300.00279
300.00279
300.00278
300.00278
300.00278
300.00278
300.00277
300.00277
300.00278
300.00277
300.00277
300.00278
300.00277
300.00277
300.00277
300.00277
300.00276
300.00276
300.00276
300.00231
300.00231
300.00276
300.00276
300.00275
300.00276
300.00276
300.00276
300.00277
300.00277
300.00277
300.00277
300.00278
300.00277
300.00277
300.00278
300.00318
300.00318
300.00318
300.00318
300.00319
300.00319
300.00319
300.00319
300.0032
300.00319
300.00319
300.0032
300.00319
300.00319
300.00319
300.00319
300.00319
300.00319
300.0032
300.0032
300.00319
300.0032
300.0032
300.00319
300.00319
300.00319
300.00318
300.00318
300.00319
300.00318
300.00318
300.00317
300.00318
300.00317
300.00317
300.00317
300.00317
300.00316
300.00316
300.00316
300.00315
300.00316
300.00316
300.00316
300.00315
300.00315
300.00316
300.00316
300.00316
300.00317
300.00317
300.00317
300.00317
300.00317
300.00317
300.00317
300.00352
300.00352
300.00353
300.00353
300.00353
300.00354
300.00354
300.00354
300.00354
300.00355
300.00354
300.00355
300.00355
300.00354
300.00354
300.00355
300.00355
300.00354
300.00354
300.00355
300.00355
300.00354
300.00355
300.00355
300.00354
300.00354
300.00354
300.00353
300.00353
300.00354
300.00353
300.00353
300.00352
300.00353
300.00352
300.00352
300.00352
300.00352
300.00351
300.00351
300.00351
300.0035
300.00351
300.00351
300.00351
300.00351
300.0035
300.00351
300.00351
300.00351
300.00352
300.00352
300.00352
300.00352
300.00352
300.00351
300.00381
300.00382
300.00382
300.00383
300.00382
300.00382
300.00384
300.00384
300.00384
300.00384
300.00385
300.00384
300.00385
300.00385
300.00384
300.00384
300.00385
300.00385
300.00384
300.00384
300.00385
300.00385
300.00384
300.00385
300.00384
300.00384
300.00384
300.00384
300.00383
300.00383
300.00384
300.00383
300.00383
300.00382
300.00383
300.00383
300.00382
300.00382
300.00382
300.00382
300.00382
300.00382
300.00381
300.00381
300.00381
300.00381
300.00381
300.00381
300.00382
300.00382
300.00382
300.00382
300.00382
300.00382
300.00382
300.00382
300.00407
300.00406
300.00407
300.00407
300.00407
300.00407
300.00407
300.00409
300.00409
300.0041
300.0041
300.0041
300.0041
300.0041
300.0041
300.0041
300.0041
300.0041
300.0041
300.0041
300.0041
300.0041
300.0041
300.0041
300.0041
300.0041
300.0041
300.0041
300.0041
300.00409
300.00409
300.00409
300.00409
300.00408
300.00408
300.00409
300.00409
300.00408
300.00408
300.00408
300.00408
300.00408
300.00408
300.00407
300.00408
300.00408
300.00408
300.00407
300.00407
300.00408
300.00408
300.00408
300.00408
300.00408
300.00408
300.00408
300.00429
300.00428
300.00427
300.00427
300.00427
300.00428
300.00427
300.00427
300.00429
300.0043
300.0043
300.00431
300.00431
300.00431
300.00431
300.00431
300.0043
300.0043
300.0043
300.0043
300.0043
300.0043
300.00431
300.00431
300.0043
300.00431
300.0043
300.0043
300.0043
300.0043
300.00429
300.00429
300.00429
300.00429
300.00429
300.00429
300.0043
300.0043
300.00429
300.0043
300.00429
300.00429
300.0043
300.00429
300.00429
300.00429
300.00429
300.00429
300.00429
300.00429
300.0043
300.0043
300.0043
300.0043
300.0043
300.00429
300.00446
300.00446
300.00443
300.00441
300.00441
300.00442
300.00442
300.00442
300.00441
300.00443
300.00446
300.00447
300.00447
300.00448
300.00447
300.00448
300.00448
300.00446
300.00446
300.00446
300.00446
300.00446
300.00446
300.00447
300.00447
300.00446
300.00446
300.00446
300.00446
300.00447
300.00447
300.00446
300.00446
300.00445
300.00445
300.00446
300.00446
300.00447
300.00447
300.00447
300.00447
300.00447
300.00447
300.00447
300.00447
300.00447
300.00447
300.00447
300.00446
300.00447
300.00447
300.00448
300.00448
300.00447
300.00447
300.00447
300.00456
300.00455
300.00454
300.00454
300.00452
300.00453
300.00453
300.00453
300.00453
300.00452
300.00454
300.00454
300.00454
300.00456
300.00455
300.00455
300.00455
300.00456
300.00455
300.00455
300.00455
300.00455
300.00455
300.00454
300.00455
300.00454
300.00454
300.00456
300.00456
300.00454
300.00454
300.00455
300.00454
300.00454
300.00455
300.00455
300.00454
300.00454
300.00455
300.00455
300.00455
300.00456
300.00456
300.00455
300.00456
300.00456
300.00456
300.00456
300.00456
300.00456
300.00456
300.00456
300.00457
300.00456
300.00455
300.00456
300.00461
300.00461
300.0046
300.00463
300.00464
300.00467
300.00468
300.00467
300.00466
300.00464
300.00462
300.00459
300.00459
300.00459
300.00458
300.00462
300.0046
300.0046
300.00462
300.00463
300.00462
300.00462
300.00459
300.0046
300.0046
300.00457
300.00458
300.00458
300.00457
300.0046
300.00459
300.00459
300.00461
300.00462
300.00462
300.00462
300.0046
300.00461
300.00462
300.0046
300.0046
300.00461
300.0046
300.00464
300.00464
300.00463
300.00464
300.00465
300.00465
300.00464
300.00463
300.00463
300.00464
300.00461
300.00467
300.00468
300.00478
300.00502
300.00542
300.00593
300.00633
300.00627
300.00584
300.00537
300.00501
300.00478
300.00467
300.00466
300.00476
300.00501
300.00557
300.00663
300.00807
300.00926
300.00933
300.00819
300.00669
300.00558
300.00501
300.00476
300.00467
300.00467
300.00461
300.00461
300.00459
300.00462
300.00455
300.00462
300.0046
300.00467
300.00462
300.00455
300.00462
300.00461
300.00461
300.0046
300.0046
300.00466
300.00478
300.00488
300.00507
300.00522
300.00517
300.00499
300.00485
300.00476
300.00467
300.00467
300.00462
300.00461
300.00459
300.00454
300.00459
300.00462
300.00462
300.00465
300.00475
300.00464
300.00454
300.00461
300.00461
300.00464
300.00462
300.0046
300.00461
300.00463
300.00465
300.00469
300.00458
300.00462
300.00467
300.00467
300.00474
300.00482
300.00483
300.00479
300.00471
300.00472
300.00466
300.00463
300.00466
300.00457
300.00465
300.00464
300.00461
300.00467
300.00456
300.00452
300.00462
300.00455
300.00451
300.00456
300.0045
300.00432
300.00409
300.00411
300.00409
300.00432
300.00436
300.00446
300.00434
300.0041
300.00413
300.0041
300.00433
300.00436
300.00412
300.00414
300.00438
300.00459
300.00472
300.0051
300.00494
300.00477
300.00528
300.00488
300.00471
300.00505
300.00563
300.00478
300.00491
300.00616
300.00642
300.00588
300.00906
300.00689
300.00546
300.00487
300.00464
300.00453
300.00471
300.00504
300.0046
300.00447
300.0046
300.0046
300.00462
300.00463
300.00463
300.00462
300.0046
300.00461
300.00464
300.00466
300.00466
300.00463
300.00451
300.00455
300.00489
300.00476
300.00487
300.00494
300.00575
300.00796
300.01284
300.01428
300.015
300.01501
300.01435
300.01296
300.01136
300.00975
300.00838
300.00839
300.00983
300.01151
300.01319
300.01463
300.01534
300.01534
300.01465
300.01323
300.01156
300.00988
300.00846
300.00845
300.00678
300.00545
300.00487
300.00469
300.00468
300.00477
300.00482
300.00482
300.00477
300.00469
300.0047
300.00487
300.00541
300.00667
300.00828
300.00828
300.00965
300.01126
300.01293
300.01442
300.01516
300.01519
300.0145
300.01306
300.01138
300.00973
300.00832
300.0083
300.00966
300.01123
300.01452
300.01873
300.02214
300.02361
300.02244
300.02083
300.02087
300.0225
300.02364
300.0221
300.01867
300.01452
300.01129
300.00817
300.00594
300.00507
300.00524
300.00638
300.00938
300.01442
300.01295
300.01693
300.0215
300.02375
300.02303
300.02081
300.01824
300.01484
300.01247
300.01079
300.01076
300.01239
300.01471
300.0181
300.02066
300.02293
300.02369
300.02072
300.01689
300.0118
300.00659
300.00224
299.99979
299.99983
300.00236
300.00677
300.01202
300.01712
300.02091
300.01846
300.02282
300.02268
300.01877
300.0197
300.01517
300.0152
300.00942
300.0064
300.00524
300.00508
300.00598
300.00827
300.01314
300.01453
300.0189
300.01973
300.02332
300.0233
300.02136
300.0129
300.01518
300.00701
300.01215
300.00463
299.99699
299.99056
299.98686
299.98681
299.99041
299.99676
300.00433
300.01183
300.01819
300.02265
300.01482
300.0066
299.99672
299.98663
299.97812
299.97323
299.97329
299.9783
299.98692
299.9971
299.99072
300.00267
300.00018
300.01127
300.01125
300.02138
300.01285
300.00254
300.00012
299.98695
299.98702
299.97332
299.97835
299.96774
299.96151
299.96144
299.96753
299.97802
299.99028
300.00219
300.01248
300.0211
300.01081
299.99966
299.98656
299.97297
299.96126
299.95433
299.95441
299.96148
299.96135
299.97321
299.97806
299.99051
299.99685
300.00687
300.01514
300.02291
300.02281
300.02172
300.01715
300.01478
300.01152
300.00986
300.01237
300.01565
300.01895
300.0224
300.02396
300.02102
300.01847
300.01206
300.00445
299.99673
299.98658
299.97788
299.9674
299.96113
299.95426
299.95419
299.96114
299.97286
299.98649
299.99962
300.01079
300.02112
300.01245
300.00209
299.99011
299.97775
299.96721
299.96106
299.97278
299.97284
299.98651
299.99024
300.00225
300.0067
300.012
300.01716
300.02099
300.02324
300.02396
300.02286
300.0184
300.01499
300.01262
300.01095
299.99972
299.9997
299.98648
299.99012
299.97773
299.98632
299.99652
300.00649
300.0148
300.02274
300.01823
300.01179
300.0042
299.99654
300.00656
300.00218
300.01257
300.01093
300.02126
300.02128
300.02339
300.02285
300.02177
300.01897
300.01483
300.01239
300.01021
300.00976
300.0122
300.01493
300.01748
300.01956
300.02046
300.02041
300.01941
300.01723
300.0146
300.01191
300.00967
300.01214
300.00998
300.01212
300.0145
300.01692
300.01872
300.01961
300.01963
300.01878
300.01702
300.01462
300.0122
300.01002
300.01217
300.01544
300.01875
300.02152
300.02253
300.02302
300.02303
300.02253
300.02147
300.01867
300.01537
300.01481
300.01186
300.01451
300.01711
300.01922
300.02018
300.02021
300.01928
300.01721
300.01463
300.01192
300.00948
300.01033
300.01189
300.01485
300.01864
300.01686
300.02151
300.02293
300.02095
300.02367
300.02242
300.024
300.02483
300.02259
300.0186
300.01453
300.0168
300.01712
300.01691
300.02154
300.02266
300.01872
300.01962
300.02323
300.02325
300.01965
300.01881
300.02277
300.02171
300.02389
300.02315
300.02087
300.01829
300.0149
300.02282
300.02391
300.02238
300.01892
300.01468
300.01705
300.0173
300.01935
300.02025
300.02022
300.01923
300.02102
300.02305
300.02152
300.02492
300.02398
300.02539
300.0247
300.02301
300.02174
300.01793
300.0218
300.02307
300.01921
300.01401
300.02072
300.01915
300.01589
300.01718
300.01817
300.00911
300.00763
300.01275
300.00537
300.01277
300.01925
300.02423
300.02084
300.01826
300.01405
300.00912
300.0173
300.01602
300.00763
300.00307
300.01364
300.02272
300.02387
300.02391
300.02112
300.02317
300.02172
300.01707
300.01474
300.01885
300.02289
300.02514
300.02432
300.02274
300.012
300.01201
300.01316
300.0149
300.01176
300.00432
300.00197
300.00057
299.98715
299.991
299.99754
299.99876
300.00706
299.9988
299.99757
299.98709
299.98788
299.97884
299.99247
300.00438
300.01479
300.01353
300.01194
300.0131
300.0117
300.00211
300.00071
300.00312
299.99113
299.98741
299.98855
299.97354
299.97322
299.97832
299.96727
299.97821
299.97872
299.99235
299.98828
299.97325
299.97294
299.96068
299.9604
299.9673
299.96059
299.96086
299.95346
299.95281
299.9524
299.96063
299.97416
299.98936
299.99343
299.99986
300.00823
300.01021
300.00156
299.99039
300.00153
299.99983
299.98899
299.97967
299.98068
299.9952
299.99087
299.97492
299.97569
299.99262
300.01515
300.0268
300.02764
300.02704
300.02359
300.02283
300.02563
300.02545
300.02432
300.02435
300.02091
300.02367
300.02291
300.02145
300.01678
300.01856
300.02257
300.02484
300.02406
300.02245
300.01197
300.01313
300.01178
300.01488
300.01361
300.00324
300.00075
300.00215
300.00449
300.00927
300.01729
300.01601
300.01928
300.02085
300.01832
300.0142
300.01295
300.00779
299.9978
299.99128
299.98746
299.9886
299.99262
299.97901
299.9736
299.97327
299.9785
299.98736
299.98814
299.99901
300.0073
300.00563
299.99787
299.99907
299.9927
299.97902
299.9675
299.96067
299.96093
299.96747
299.96089
299.95354
299.95288
299.96062
299.97356
299.97327
299.97852
299.99138
299.98755
299.98866
300.00236
300.00469
300.00943
300.01429
300.01939
300.02312
300.02186
300.02407
300.02495
300.02548
300.02482
300.02321
300.02196
300.01812
300.01305
300.01948
300.02435
300.02105
300.0185
300.01758
300.01632
300.00798
300.00347
300.01398
300.02289
300.01522
300.01208
300.01351
300.01239
300.001
300.00095
299.98747
299.97315
299.96075
299.95337
299.9533
299.96054
299.97283
299.98708
300.00052
300.00192
300.01315
300.0117
300.01485
300.0136
300.00296
300.00422
300.00898
300.01727
300.01599
300.0075
300.0127
300.01927
300.02086
300.01824
300.01396
300.00687
299.99851
299.99214
299.98821
299.97314
299.97842
299.97792
299.99081
299.9973
299.98674
299.9875
299.99848
299.99729
300.00519
300.01271
300.01182
300.01698
300.02086
300.02192
300.0232
300.0249
300.01925
300.01797
300.02192
300.02516
300.0242
300.02563
300.02319
300.02087
300.01395
300.01821
300.00896
300.00752
300.01603
300.02435
300.0193
300.01727
300.01484
300.00416
299.99206
299.97835
299.96691
299.96026
299.95264
299.96015
299.96045
299.96691
299.97788
299.97271
299.97298
299.98806
299.98698
299.99077
300.00296
300.0005
300.00184
300.01163
300.01313
300.02278
300.01365
300.01205
300.01206
300.00053
299.98702
299.97276
299.96051
299.96022
299.95271
299.96046
299.9671
299.96709
299.97821
299.97869
299.97345
299.98857
299.99246
299.99116
299.99759
299.98697
299.97802
299.97849
299.97303
299.9881
299.99216
299.99088
299.99746
299.99864
299.98772
299.99877
300.00706
300.0054
300.01293
300.00781
300.00334
300.00455
300.0023
300.01201
300.01349
300.0229
300.01237
300.01393
300.01516
300.01752
300.00925
300.01844
300.01416
300.02105
300.02445
300.01626
300.01947
300.02205
300.01813
300.01286
300.00764
300.00303
300.00423
300.00187
300.01167
300.01314
300.02279
300.0137
300.0149
300.01734
300.00908
300.01832
300.01409
300.02096
300.0244
300.0161
300.0194
300.02202
300.02521
300.02329
300.01939
300.02501
300.02332
300.02521
300.02428
300.02571
300.02295
300.02325
300.02606
300.02591
300.02481
300.02479
300.02578
300.02577
300.02282
300.02565
300.02549
300.02769
300.02683
300.01523
300.02163
300.02485
300.02886
300.02234
300.01042
300.00613
300.0049
300.00459
300.0047
300.00506
300.00491
300.00477
300.00456
300.00453
300.00462
300.00454
300.00471
300.00505
300.0056
300.00581
300.00638
300.01079
300.01085
300.01046
300.00856
300.00643
300.00517
300.00642
300.00684
300.00662
300.00535
300.00484
300.00473
300.00524
300.00578
300.00561
300.00614
300.00626
300.00606
300.00899
300.00902
300.00607
300.00501
300.00501
300.00498
300.00498
300.0049
300.00455
300.00452
300.00478
300.00488
300.00495
300.00577
300.00802
300.00668
300.00537
300.00484
300.00476
300.00501
300.00562
300.00677
300.0083
300.00952
300.00952
300.00832
300.00679
300.00564
300.00503
300.00475
300.00465
300.00465
300.00477
300.00503
300.00546
300.006
300.00645
300.00645
300.006
300.00545
300.00503
300.00478
300.00466
300.00466
300.0046
300.00461
300.00459
300.00462
300.00462
300.00455
300.00459
300.0045
300.00454
300.00462
300.00448
300.00433
300.00436
300.00438
300.00438
300.00435
300.00432
300.0041
300.00383
300.00352
300.0035
300.00351
300.00351
300.00382
300.00382
300.00382
300.00351
300.00349
300.00347
300.0035
300.00382
300.00383
300.00382
300.00351
300.00352
300.00384
300.00385
300.00352
300.00354
300.0035
300.00349
300.00352
300.00395
300.00383
300.00417
300.00436
300.00473
300.0044
300.00452
300.00422
300.0043
300.00463
300.00575
300.00525
300.00479
300.00522
300.00462
300.00393
300.00387
300.00423
300.00371
300.00399
300.00627
300.00499
300.00395
300.00353
300.00347
300.00384
300.00383
300.0041
300.00434
300.00446
300.00417
300.00436
300.00413
300.00439
300.00473
300.00527
300.00452
300.00423
300.00412
300.00415
300.00387
300.00385
300.00353
300.00355
300.00356
300.00352
300.00389
300.00383
300.00395
300.00353
300.00373
300.00426
300.00481
300.00529
300.00432
300.00465
300.00581
300.01002
300.00798
300.00592
300.00483
300.00442
300.0053
300.00592
300.00941
300.01029
300.01715
300.02236
300.02882
300.02774
300.0235
300.0172
300.00853
300.00892
300.01067
300.01047
300.02262
300.02908
300.02785
300.02716
300.02573
300.02568
300.02789
300.02158
300.02708
300.02936
300.03194
300.02964
300.02451
300.02977
300.0317
300.02835
300.02479
300.01892
300.02881
300.02717
300.02466
300.02468
300.0272
300.01519
300.01523
299.99679
300.00346
300.01206
300.02147
300.02469
300.02821
300.03136
300.03144
300.02842
300.01881
300.02278
300.00423
300.0113
300.01989
300.01791
300.0158
300.01398
300.00521
300.00348
299.99176
299.99349
300.0052
299.99845
299.98288
299.98157
299.98056
299.99509
299.99331
299.97955
299.97387
299.9891
299.99062
299.97462
299.97538
299.99238
299.99372
299.97639
299.96044
299.96903
299.983
299.99855
299.99689
299.98169
299.96843
299.96805
299.96766
299.96043
299.96041
299.95187
299.96062
299.96057
299.96067
299.9767
299.99397
299.99578
300.0003
300.00717
300.00915
299.99694
300.00913