/*--------------------------------*- C++ -*----------------------------------*\
  =========                 |
  \\      /  F ield         | OpenFOAM: The Open Source CFD Toolbox
   \\    /   O peration     | Website:  https://openfoam.org
    \\  /    A nd           | Version:  7
     \\/     M anipulation  |
\*---------------------------------------------------------------------------*/
FoamFile
{
    version     2.0;
    format      ascii;
    class       volVectorField;
    location    "300";
    object      U;
}
// * * * * * * * * * * * * * * * * * * * * * * * * * * * * * * * * * * * * * //

dimensions      [0 1 -1 0 0 0 0];

internalField   nonuniform List<vector> 
24866
(
(120.00024 -0.00060962026 -0.00073870886)
(120.00037 -0.00038508139 -0.00055809305)
(120.00034 -0.00044673072 -0.00046479369)
(120.00013 -0.00023748949 -0.00023877944)
(120.00003 -6.6313422e-05 -7.0053321e-05)
(120.00003 -6.131272e-05 -8.4156884e-05)
(120.00002 -4.8891469e-05 -9.5746841e-05)
(120.00003 -4.8695126e-05 -8.960473e-05)
(120.00003 -2.9578426e-05 -9.6593968e-05)
(120.00003 -2.054945e-05 -0.0001092524)
(120.00003 -6.7027772e-06 -0.00010796872)
(120.00003 5.6539015e-06 -0.00010792002)
(120.00003 1.9696686e-05 -0.0001091053)
(120.00003 2.9155739e-05 -9.6383481e-05)
(120.00003 4.8666782e-05 -8.9661094e-05)
(120.00002 4.9310969e-05 -9.4608319e-05)
(120.00003 6.3257093e-05 -8.3377778e-05)
(120.00003 6.8111514e-05 -6.7726772e-05)
(120.00003 7.3625266e-05 -6.6038889e-05)
(120.00003 9.1687363e-05 -5.6769893e-05)
(120.00003 0.00011055695 -5.3905508e-05)
(120.00004 0.00012385139 -4.0421217e-05)
(120.00003 0.00011085921 -2.6735773e-05)
(120.00005 9.7536556e-05 -4.2739316e-05)
(120.00003 0.0001235311 -1.2200268e-05)
(120.00003 0.00013344929 1.623471e-06)
(120.00003 0.0001153097 1.6123554e-05)
(120.00005 9.0131566e-05 4.5882729e-05)
(120.00005 0.00010500582 2.806521e-05)
(120.00003 0.00010648491 5.5037174e-05)
(120.00003 8.5510341e-05 5.5553518e-05)
(120.00003 7.0930824e-05 6.6593853e-05)
(120.00003 6.8188142e-05 6.9685845e-05)
(120.00003 5.7242635e-05 8.4323549e-05)
(120.00003 5.6807927e-05 0.00010508487)
(120.00005 2.9486628e-05 0.00010380818)
(120.00005 4.7524285e-05 8.9413791e-05)
(120.00003 1.7855319e-05 0.00011437203)
(120.00003 3.3148932e-06 0.00013272466)
(120.00003 -1.035398e-05 0.00012288232)
(120.00004 -4.1326688e-05 9.711072e-05)
(120.00003 -2.5926402e-05 0.00011046399)
(120.00004 -3.9636477e-05 0.00012328857)
(120.00003 -5.3237748e-05 0.00010998372)
(120.00003 -5.6302754e-05 9.0998474e-05)
(120.00003 -6.578726e-05 7.3111359e-05)
(120.00003 -6.7389122e-05 6.7311659e-05)
(120.00003 -8.3243068e-05 6.2508252e-05)
(120.00002 -9.434498e-05 4.8377825e-05)
(120.00003 -8.9647911e-05 4.7882387e-05)
(120.00003 -9.5948981e-05 2.8195607e-05)
(120.00003 -0.00010883563 1.8580865e-05)
(120.00003 -0.00010760088 4.6126035e-06)
(120.00003 -0.00010746506 -7.8625603e-06)
(120.00003 -0.0001083768 -2.1838031e-05)
(120.00003 -9.6050434e-05 -3.0954414e-05)
(120.00003 -8.8818737e-05 -5.0038377e-05)
(120.00002 -9.4784156e-05 -5.0336688e-05)
(120.00003 -8.2890189e-05 -6.2593702e-05)
(120.00003 -6.9133395e-05 -6.78654e-05)
(120.00003 -0.00012339297 -9.7037828e-05)
(120.00001 -0.00012483513 -0.00012606508)
(120.00003 -9.5857734e-05 -0.00012463745)
(120.00003 -9.954415e-05 -0.00011862962)
(120.00001 -0.00010312373 -0.00015964252)
(120.00002 -7.6020258e-05 -0.00017722212)
(120.00002 -6.4713865e-05 -0.00016114364)
(120.00002 -5.5086228e-05 -0.00014552542)
(120.00001 -4.1402953e-05 -0.00018380774)
(120.00001 -1.4625308e-05 -0.0001945637)
(120.00001 1.352609e-05 -0.00019454132)
(120.00001 4.0588694e-05 -0.00018372578)
(120.00002 5.4696917e-05 -0.00014535025)
(120.00002 6.4597761e-05 -0.00016101139)
(120.00002 7.6042603e-05 -0.00017686294)
(120.00001 0.00010418871 -0.00015885972)
(120.00003 0.00010146422 -0.00011789251)
(120.00003 9.748557e-05 -0.00012268301)
(120.00001 0.00012795905 -0.00012417568)
(120.00003 0.00012812551 -9.7470532e-05)
(120.00004 0.00012635574 -0.00010176819)
(120.00001 0.00017650639 -0.00010830162)
(120.00002 0.00020654004 -8.9043047e-05)
(120.00002 0.0002132806 -6.5873529e-05)
(120.00002 0.00021116782 -1.3725783e-05)
(120.00001 0.00019143621 -2.8031398e-05)
(120.00002 0.00019038754 -1.34347e-05)
(120 0.00019742578 9.7320936e-06)
(120.00002 0.00017512456 3.1762044e-05)
(120.00001 0.00017613286 4.8571628e-05)
(120.00002 0.00019465404 4.4290654e-05)
(120.00001 0.00022187888 1.5186835e-05)
(120.00001 0.00025498782 2.3730035e-05)
(120.00001 0.00025490984 -3.201957e-05)
(120.00001 0.00023822282 -8.5325625e-05)
(120.00001 0.00021426675 -0.0001229659)
(120.00001 0.00017152932 -0.00013312845)
(120.00001 0.00017790241 -0.00017615088)
(120.00001 0.00013455864 -0.0001667055)
(120.00001 0.00011925997 -0.00021308514)
(120.00001 0.00015318241 -0.00021462704)
(120 0.00018778233 -0.00018884987)
(120.00001 0.00021637341 -0.00015464283)
(120.00001 0.00024490299 -0.00010824608)
(120.00001 0.00026075097 -4.1347361e-05)
(120 0.00026035795 3.3353246e-05)
(120.00001 0.00024337198 0.00010203578)
(120.00001 0.00023918098 7.6507386e-05)
(120.00001 0.00020883099 0.00011754423)
(120.00002 0.00018601755 7.9932022e-05)
(120.00001 0.00016936618 0.00010483261)
(120.00003 0.00011910901 9.735448e-05)
(120.00003 0.000124262 9.5958963e-05)
(120.00001 0.00012490097 0.00012345321)
(120.00001 0.00016812207 0.0001308149)
(120.00001 0.00017626962 0.00017465095)
(120.00001 0.00021413804 0.0001503332)
(120 0.0001868082 0.00018508114)
(120 0.00021397659 0.00012590328)
(119.99999 0.00022938013 4.2371777e-05)
(119.99999 0.00022982079 -4.9915208e-05)
(120 0.00021447568 -0.00013159632)
(119.99998 0.00014765974 -0.00015035711)
(119.99999 0.00012885319 -0.00021571435)
(120.00001 0.00010549179 -0.00024585607)
(120.00001 8.0414e-05 -0.00024500083)
(120.00001 5.7282442e-05 -0.00021267309)
(120.00002 2.2321738e-05 -0.00023253)
(120.00001 2.8544379e-05 -0.00026323524)
(120 3.7119819e-05 -0.00026321425)
(119.99999 4.5650525e-05 -0.00023119169)
(119.99997 5.2378069e-05 -0.00016126829)
(119.99996 5.6243328e-05 -6.045418e-05)
(119.99997 0.0001584903 -5.6519763e-05)
(119.99997 0.00015813065 4.9659079e-05)
(119.99998 0.00014690802 0.00014510188)
(120 0.00012766289 0.00021221997)
(120.00001 0.00010373645 0.00024173534)
(120.00001 0.00015202783 0.00021250437)
(120.00001 0.00011918571 0.00020734454)
(120.00001 0.00013244571 0.0001665685)
(120.00001 0.00010657959 0.00016805199)
(120.00003 9.8982591e-05 0.00011790606)
(120.00003 9.7204019e-05 0.00012279254)
(120.00003 0.00018638134 0.00025315798)
(120.00003 0.00020877188 0.00023770817)
(120.00006 0.00029435427 0.0003561333)
(120.00014 0.0001901754 0.00028758197)
(120.00012 0.0002388759 0.00023597575)
(120.00012 0.00024000949 0.00023437368)
(120.00014 0.00029110512 0.00018496137)
(120.00012 0.00032654903 0.00014723793)
(120.00012 0.00038407391 0.00016081954)
(120.00004 0.00022640328 6.9656956e-05)
(120.00005 0.00019334824 8.9047928e-05)
(120.00012 0.00039587029 0.00011917728)
(120.00012 0.00038652131 7.3406051e-05)
(120.00011 0.00039670234 7.5631961e-06)
(120.00013 0.00041228708 -5.614696e-05)
(120.00011 0.00043511075 -0.00011688309)
(120.00015 0.00052301826 -0.00012982573)
(120.00014 0.00044186024 -0.00019258057)
(120.00012 0.00034180152 -0.00014487118)
(120.00015 0.00030475547 -0.00018927638)
(120.00013 0.0002493675 -0.00023536957)
(120.00013 0.0002448264 -0.00023263416)
(120.00014 0.00020697958 -0.00028051255)
(120.00011 0.00015817824 -0.00029295377)
(120.00013 0.00016951664 -0.00031343362)
(120.00013 9.1881883e-05 -0.00034246007)
(120.00013 6.7364679e-05 -0.00035360694)
(120.00013 1.9753832e-05 -0.00037194077)
(120.00014 -2.2855149e-05 -0.0003720694)
(120.00013 -6.974573e-05 -0.00035381231)
(120.00014 -9.3191184e-05 -0.00034314581)
(120.00013 -0.0001697584 -0.00031393995)
(120.00012 -0.00015642835 -0.00029486394)
(120.00014 -0.00020181938 -0.00028363828)
(120.00007 -0.00029854998 -0.00035672605)
(120.00007 -0.00027344366 -0.00033755965)
(120.00003 -0.00018529797 -0.00025822803)
(120.00003 -0.00021002286 -0.00023995238)
(120.00006 -0.00035927816 -0.00038497533)
(120.00013 -0.00035246088 -0.00042396466)
(120.00007 -0.00029776856 -0.00039318123)
(120.00005 -0.0003607504 -0.00036421424)
(120.00001 -0.00051910436 -0.0004250504)
(120.00001 -0.00016648393 -0.00013447319)
(120.00001 -0.00017501931 -0.00017649363)
(120.00001 -0.00013301651 -0.00016781461)
(120.00001 -0.00011897688 -0.00021361397)
(120.00001 -8.0862272e-05 -0.00024521672)
(120.00001 -5.7904665e-05 -0.00021281579)
(120.00002 -2.3353899e-05 -0.00023253983)
(120.00001 -2.9490617e-05 -0.00026328178)
(120 -3.8024697e-05 -0.00026323373)
(119.99999 -4.6691692e-05 -0.00023112525)
(119.99997 -5.3807855e-05 -0.00016109026)
(119.99996 -5.824598e-05 -6.0183114e-05)
(119.99996 -5.8631392e-05 5.4269908e-05)
(119.99996 5.5872426e-05 5.3988236e-05)
(119.99997 5.1447074e-05 0.0001562587)
(119.99999 4.4089366e-05 0.00022759393)
(120 3.5005459e-05 0.00025872583)
(120.00001 2.5296409e-05 0.00025355628)
(120.00001 7.8161381e-05 0.00023772724)
(120.00002 4.5925344e-05 0.00019333336)
(120.00002 8.1589304e-05 0.00018475594)
(120.00005 0.0002275417 0.0005347082)
(120.00011 0.0001822385 0.00051720947)
(120.00005 0.00010147982 0.0003326562)
(120.00004 7.2821256e-05 0.00022417667)
(120.00012 0.00016601006 0.00038062162)
(120.00012 0.00015208722 0.00032272866)
(120.00029 0.0003169734 0.00063989827)
(120.00034 0.00037630972 0.00056335675)
(120.00032 0.00045024673 0.00045996094)
(120.00032 0.00046696742 0.00044189912)
(120.00034 0.00057022712 0.0003674927)
(120.00029 0.00064669866 0.00030851339)
(120.0003 0.00066555449 0.00030179056)
(120.00031 0.00072335632 0.00020024758)
(120.0003 0.00072736837 0.000134144)
(120.0003 0.00076207452 2.2255964e-05)
(120.0003 0.0007647466 -8.8626411e-05)
(120.00028 0.00078146587 -0.00019219195)
(120.00032 0.0008409493 -0.0002334973)
(120.00032 0.00073475783 -0.0003454352)
(120.00031 0.00067614392 -0.00031467516)
(120.00036 0.0005903045 -0.00036994947)
(120.00033 0.00047956627 -0.00044334017)
(120.00034 0.00045928471 -0.00045828378)
(120.00036 0.00039309387 -0.00055371654)
(120.00032 0.00032582363 -0.00060986566)
(120.00034 0.00030635953 -0.00060703027)
(120.00035 0.00018530992 -0.00067464265)
(120.00034 0.00013452923 -0.00071484999)
(120.00034 3.6615349e-05 -0.00075551158)
(120.00034 -4.1913403e-05 -0.00075552086)
(120.00034 -0.00013895579 -0.00071495627)
(120.00035 -0.00018800299 -0.00067515644)
(120.00035 -0.00030676276 -0.00060799599)
(120.00032 -0.00032332824 -0.00061224257)
(120.00064 -0.0005889878 -0.0010959202)
(120.00071 -0.00070118659 -0.0010243976)
(120.00068 -0.00082408967 -0.00085442955)
(120.00068 -0.00084538137 -0.00083493793)
(120.00071 -0.0010149879 -0.00071203363)
(120.00037 -0.00055214361 -0.00039244018)
(120.00014 -0.00028044449 -0.00020613042)
(120.00012 -0.00029154106 -0.00016036869)
(120.00013 -0.00031137695 -0.00017373013)
(120.00013 -0.00034127829 -9.7418532e-05)
(120.00013 -0.00035161208 -7.3671364e-05)
(120.00013 -0.00037044799 -2.6589579e-05)
(120.00013 -0.00037066933 1.6276676e-05)
(120.00013 -0.00035244423 6.3956962e-05)
(120.00013 -0.00034134224 8.88122e-05)
(120.00013 -0.00031258334 0.00016648816)
(120.00011 -0.0002921805 0.00015544894)
(120.00014 -0.00027951534 0.00020438295)
(120.00012 -0.00023161197 0.00024235631)
(120.00012 -0.00023409098 0.00024737777)
(120.00014 -0.0001877371 0.00030259891)
(120.00012 -0.00014312956 0.00033992746)
(120.00014 -0.00018956261 0.00043950225)
(120.00006 -7.6797959e-05 0.00025895825)
(120.00002 -6.2978842e-05 0.00026588052)
(120.00004 -7.1527842e-05 0.00022683816)
(120.00011 -0.00011320258 0.00043270379)
(120.00012 -5.2225651e-05 0.00040940985)
(120.00011 1.2252257e-05 0.00039434685)
(120.00012 7.826124e-05 0.00038426223)
(120.00012 0.00012427508 0.00039305177)
(120.00005 9.231049e-05 0.00019167992)
(120.00004 0.00010543138 0.00030325367)
(120.00009 0.00015045954 0.00048006415)
(120.00011 0.00020704759 0.0004959407)
(120.00014 0.0001974098 0.00058601839)
(120.0001 0.00013973419 0.00052129827)
(120.0001 0.00010792648 0.00055392417)
(120.00009 8.7695834e-05 0.00061160087)
(120.00003 4.9058041e-05 0.0004179607)
(120.00001 5.0267176e-05 0.00017487535)
(120.00002 3.3818088e-05 0.00017384182)
(120 1.1295834e-05 0.00019637543)
(120.00001 1.6719648e-05 0.00022064879)
(120.00002 -1.2449212e-05 0.00021018147)
(120.00001 -3.0579881e-05 0.00025353578)
(120.00001 -3.9810113e-05 0.00025915149)
(119.99999 -4.8299006e-05 0.00022802209)
(119.99997 -5.4813843e-05 0.00015656513)
(119.99998 -0.00014878279 0.00014572393)
(119.99997 -0.00015957495 5.0368548e-05)
(119.99997 -0.00015927524 -5.5803925e-05)
(119.99998 -0.00014804898 -0.00014993647)
(119.99999 -0.00012900213 -0.00021560574)
(120.00001 -0.00010573096 -0.00024599591)
(120.00001 -0.00015245127 -0.00021502049)
(120 -0.00018697731 -0.00018868153)
(119.99999 -0.00021389728 -0.00013088105)
(119.99999 -0.00022949444 -4.8656135e-05)
(119.99999 -0.00022968163 4.3690938e-05)
(119.99999 -0.00021431978 0.00012698802)
(120 -0.00018756073 0.0001860796)
(120 -0.00013012989 0.00021269462)
(120.00001 -0.0001068556 0.000243331)
(120.00001 -8.401075e-05 0.00023691028)
(120.00002 -6.4601401e-05 0.0002121908)
(120.00002 -8.7946652e-05 0.00020539955)
(120.00001 -0.00012183118 0.00021299824)
(120.00001 -0.0001534339 0.00021486916)
(120.00001 -0.00017514642 0.00017651262)
(120.00001 -0.00021353594 0.00015161106)
(120.00001 -0.00024464834 0.00010378541)
(120 -0.00026190473 3.5315627e-05)
(120 -0.0002618111 -3.9847584e-05)
(120.00001 -0.00024450437 -0.00010748242)
(120.00001 -0.00021350869 -0.00015409253)
(120.00001 -0.00021233138 -0.0001205165)
(120.00001 -0.0002439447 -8.2453984e-05)
(120.00001 -0.0002620533 -3.1097796e-05)
(120.00001 -0.00026210513 2.6967215e-05)
(120.00001 -0.00024397221 7.8921417e-05)
(120.00001 -0.00021217085 0.00011785492)
(120.00001 -0.00016593518 0.0001333213)
(120.00001 -0.0001235228 0.00012697437)
(120.00001 -0.00013225777 0.00017038829)
(120.00001 -0.00010739999 0.00017544143)
(120.00004 -0.00010109361 0.0001254513)
(120.00003 -9.6926517e-05 0.00012725)
(120.00003 -0.00018439755 0.00026056377)
(120.00006 -0.00027085717 0.00034125838)
(120.00007 -0.00029860333 0.00037523673)
(120.00003 -0.00021176953 0.00025069118)
(120.00006 -0.00036128809 0.00040450741)
(120.00006 -0.00029680797 0.00039407548)
(120.00012 -0.00035338389 0.00043647576)
(120.00023 -0.00060625751 0.00075533172)
(120.00035 -0.00036721808 0.00058647037)
(120.0003 -0.00031130124 0.00067246952)
(120.00031 -0.00034050429 0.00073093895)
(120.00031 -0.0002282701 0.00083712364)
(120.00015 -0.00012651017 0.00052038144)
(120.00008 -0.00022017694 0.00063315385)
(120.00014 -0.00016647074 0.00056623884)
(120.00013 -0.00013382975 0.00058166409)
(120.00005 -7.5235074e-05 0.00041351779)
(120.00003 -7.3968698e-05 0.00037919322)
(120.0001 -8.9007002e-05 0.00058858381)
(120.00015 -0.00014673958 0.00065127412)
(120.00008 -0.00011515948 0.00054242842)
(120.00019 -0.00024002545 0.0010708284)
(120.00028 -0.00018605105 0.00077753028)
(120.0003 -8.1733339e-05 0.00076070137)
(120.00029 3.0126489e-05 0.00075815546)
(120.0003 0.00014234327 0.00072286802)
(120.0003 0.00020862807 0.0007177615)
(120.0003 0.00031063938 0.00065994382)
(120.0006 0.00055081356 0.0011201439)
(120.00059 0.00058313747 0.0011180533)
(120.00067 0.00069699345 0.0010259346)
(120.00064 0.00082817013 0.00084445533)
(120.00064 0.00085526554 0.00081522148)
(120.00067 0.0010371111 0.00068393281)
(120.00059 0.0011284653 0.00057033727)
(120.0006 0.0011285867 0.00053746019)
(120.00063 0.0012729542 0.00034036304)
(120.0006 0.0012846136 0.00023052382)
(120.0006 0.0013312112 5.0941215e-05)
(120.00059 0.0013334601 -0.00012252028)
(120.00058 0.0013309733 -0.00030176255)
(120.00062 0.0013571462 -0.00038880856)
(120.0006 0.0011801558 -0.0005767108)
(120.0006 0.0011542886 -0.000588227)
(120.00068 0.0010577312 -0.00069587961)
(120.00066 0.00086855934 -0.00082311584)
(120.00067 0.00083902121 -0.00084871903)
(120.0007 0.00070994081 -0.0010192031)
(120.00064 0.00059047548 -0.0010933776)
(120.00066 0.00055061546 -0.0010796565)
(120.00068 0.00033760859 -0.0012246808)
(120.00065 0.00023990302 -0.0012593566)
(120.00063 7.0916264e-05 -0.0013025791)
(120.00064 -7.9719082e-05 -0.0013031213)
(120.00065 -0.00024744628 -0.0012599745)
(120.00069 -0.0003426708 -0.0012248351)
(120.00066 -0.00055275208 -0.0010807856)
(120.00108 -0.00089341148 -0.0017453413)
(120.00105 -0.00096097358 -0.0017537708)
(120.00115 -0.0011525335 -0.001665513)
(120.00112 -0.0013485021 -0.0014004452)
(120.00112 -0.0013878502 -0.0013633068)
(120.00115 -0.0016523558 -0.0011672802)
(120.00105 -0.0017418354 -0.00097562032)
(120.00064 -0.0010872419 -0.00059966154)
(120.00032 -0.00060650463 -0.00033039778)
(120.00035 -0.00060360384 -0.0003140569)
(120.00035 -0.0006711282 -0.00019519811)
(120.00034 -0.00071138363 -0.00014596725)
(120.00034 -0.00075248774 -4.8833118e-05)
(120.00034 -0.00075260763 3.0042282e-05)
(120.00034 -0.00071226167 0.00012840451)
(120.00035 -0.00067247379 0.0001797378)
(120.00034 -0.00060524301 0.00030079789)
(120.00031 -0.0006082536 0.00032092828)
(120.00036 -0.00055191715 0.00038845099)
(120.00033 -0.0004563644 0.00045495043)
(120.00033 -0.00044111462 0.00047588955)
(120.00065 -0.00081908331 0.0008622629)
(120.00068 -0.00069122666 0.0010512348)
(120.00059 -0.000582593 0.0011481761)
(120.00059 -0.00056929105 0.0011742665)
(120.00061 -0.0003808221 0.0013510457)
(120.00057 -0.00029234357 0.0013245813)
(120.00058 -0.00011195697 0.0013269483)
(120.00059 6.2570796e-05 0.0013245811)
(120.0006 0.0002427975 0.0012773402)
(120.00062 0.00035322328 0.0012640861)
(120.00102 0.00056623766 0.0020132796)
(120.00099 0.00088561661 0.0017726653)
(120.00097 0.00095488574 0.0017684174)
(120.00109 0.0011497771 0.0016616861)
(120.00105 0.001352516 0.0013836573)
(120.00105 0.0013989927 0.0013344559)
(120.00109 0.0016777432 0.0011318212)
(120.00098 0.0017830418 0.0009371895)
(120.00099 0.0017847197 0.00086711849)
(120.00103 0.0020260844 0.00054837585)
(120.00098 0.0020436556 0.0003766608)
(120.00096 0.0021024306 9.4482143e-05)
(120.00095 0.0021050599 -0.00017232533)
(120.00096 0.002078376 -0.00045502204)
(120.00102 0.0020845494 -0.00060781957)
(120.001 0.0018214937 -0.00091438292)
(120.00098 0.0018026444 -0.00097142016)
(120.00111 0.0016933452 -0.0011571105)
(120.00108 0.0014096527 -0.0013534682)
(120.00109 0.0013623376 -0.0013963705)
(120.00113 0.0011593258 -0.0016611647)
(120.00103 0.00095946776 -0.0017519126)
(120.00106 0.00088769748 -0.0017446784)
(120.0011 0.00055937233 -0.0019848615)
(120.00104 0.0003954463 -0.0020136403)
(120.00102 0.00012049784 -0.0020680968)
(120.00102 -0.00013414212 -0.0020683059)
(120.00104 -0.00040739443 -0.0020137974)
(120.00111 -0.00056842253 -0.0019841851)
(120.00167 -0.00088466235 -0.0030168724)
(120.00164 -0.0013555491 -0.0026599487)
(120.0016 -0.001472522 -0.0026506137)
(120.00175 -0.0017724031 -0.0025311756)
(120.0017 -0.0020603208 -0.0021480557)
(120.0017 -0.0021314757 -0.002079436)
(120.00175 -0.0025139488 -0.0017914889)
(120.00159 -0.0026350064 -0.0014915996)
(120.00164 -0.002646678 -0.0013756517)
(120.00167 -0.0030034392 -0.00090493089)
(120.0011 -0.0019741686 -0.00058383751)
(120.00068 -0.0012180045 -0.00035374913)
(120.00064 -0.0012537969 -0.00025809244)
(120.00063 -0.001297571 -9.0036492e-05)
(120.00063 -0.0012983576 6.1003447e-05)
(120.00064 -0.0012555393 0.00023035387)
(120.00068 -0.0012210194 0.0003286171)
(120.00065 -0.0010764745 0.00054158877)
(120.00063 -0.0010902877 0.00058252846)
(120.00069 -0.0010159108 0.00070236032)
(120.00066 -0.00084520814 0.00083173124)
(120.00108 -0.0013908369 0.001351422)
(120.00107 -0.0013471597 0.0014000814)
(120.00109 -0.001150054 0.0016835637)
(120.00097 -0.00096309296 0.0017935386)
(120.00098 -0.00090393379 0.0018128721)
(120.001 -0.00059661559 0.0020755172)
(120.00095 -0.00044190647 0.0020689988)
(120.00094 -0.0001576823 0.0020954832)
(120.00095 0.0001104862 0.0020925554)
(120.00097 0.00039360294 0.0020329763)
(120.00148 0.00060907381 0.0030587465)
(120.00156 0.00087234706 0.0030322355)
(120.00153 0.0013436052 0.0026737302)
(120.00149 0.0014655815 0.0026538511)
(120.00166 0.001769961 0.0025187339)
(120.00161 0.0020644068 0.0021224934)
(120.00161 0.0021432088 0.0020404377)
(120.00166 0.0025403921 0.0017462257)
(120.0015 0.0026734679 0.0014421683)
(120.00154 0.0026901901 0.0013191783)
(120.00157 0.0030496469 0.00084874552)
(120.00149 0.0030734855 0.00058674931)
(120.00146 0.0031500805 0.00015735652)
(120.00146 0.0031527792 -0.00024582424)
(120.00148 0.0030986411 -0.00067459868)
(120.00157 0.0030881161 -0.00092164441)
(120.00155 0.0027146412 -0.0013811574)
(120.00152 0.0026858427 -0.0014929057)
(120.00169 0.0025494348 -0.0017863512)
(120.00165 0.0021491038 -0.002073319)
(120.00166 0.002069885 -0.0021462529)
(120.00172 0.0017746905 -0.0025291153)
(120.00158 0.0014660521 -0.0026504463)
(120.00162 0.0013442467 -0.0026605798)
(120.00166 0.00086958652 -0.0030189775)
(120.00158 0.00061244518 -0.0030477808)
(120.00155 0.00018824247 -0.0031214108)
(120.00155 -0.00020846742 -0.00312133)
(120.00158 -0.00063078081 -0.0030472906)
(120.00234 -0.00093661633 -0.0044466363)
(120.00247 -0.0013161618 -0.0044068343)
(120.00243 -0.001978405 -0.0038968591)
(120.00237 -0.0021638011 -0.0038572337)
(120.00258 -0.0026051077 -0.0036882907)
(120.00251 -0.0030133709 -0.0031520952)
(120.00251 -0.0031311596 -0.0030371937)
(120.00258 -0.0036666094 -0.0026289446)
(120.00236 -0.0038375054 -0.0021877231)
(120.00242 -0.0038797946 -0.0020037493)
(120.00246 -0.0043894393 -0.0013418559)
(120.00233 -0.0044318341 -0.00096216882)
(120.00158 -0.003035949 -0.00065075587)
(120.00104 -0.002005266 -0.00042242128)
(120.00101 -0.0020605895 -0.00014869776)
(120.00101 -0.0020613577 0.00010637695)
(120.00103 -0.0020074506 0.0003815336)
(120.00109 -0.0019792572 0.0005462385)
(120.00105 -0.0017398457 0.00087453437)
(120.00102 -0.001746982 0.00094779883)
(120.00112 -0.0016559542 0.0011480566)
(120.0017 -0.0025215584 0.0017589498)
(120.00165 -0.0021382649 0.0020545992)
(120.00164 -0.0020643317 0.0021355364)
(120.00167 -0.0017764528 0.002535675)
(120.0015 -0.0014814559 0.0026730627)
(120.00153 -0.0013671508 0.002702566)
(120.00155 -0.00090666178 0.0030754398)
(120.00146 -0.00065722352 0.0030855905)
(120.00144 -0.00022651848 0.0031394448)
(120.00145 0.00017843479 0.0031363167)
(120.00215 0.00027271039 0.0045517719)
(120.0022 0.00090681238 0.0044455109)
(120.00233 0.0012956132 0.0044069157)
(120.00229 0.0019623336 0.0038966809)
(120.00224 0.0021551448 0.0038471453)
(120.00245 0.0026025427 0.003664463)
(120.0024 0.0030176104 0.0031159307)
(120.0024 0.0031429474 0.0029867424)
(120.00246 0.0036926276 0.0025720047)
(120.00225 0.0038726594 0.0021250627)
(120.0023 0.0039183881 0.0019310414)
(120.00234 0.0044297728 0.0012653718)
(120.00222 0.0044650904 0.00087828498)
(120.00217 0.0045701994 0.00024579788)
(120.00217 0.0045724731 -0.00034995428)
(120.00221 0.0044822722 -0.00098058854)
(120.00235 0.0044525001 -0.0013554454)
(120.00232 0.0039323024 -0.0020109826)
(120.00227 0.0038771265 -0.0021931713)
(120.0025 0.0036939121 -0.0026287749)
(120.00246 0.0031426814 -0.0030359005)
(120.00247 0.0030163062 -0.0031532358)
(120.00254 0.0026007844 -0.0036897224)
(120.00234 0.0021504665 -0.0038597871)
(120.00241 0.0019594345 -0.0038996283)
(120.00245 0.0012928306 -0.0044109153)
(120.00233 0.00090964481 -0.0044480286)
(120.00228 0.00028135645 -0.0045513127)
(120.00229 -0.00031044484 -0.0045508854)
(120.0033 -0.00044745873 -0.0064344578)
(120.00337 -0.0013441628 -0.0062852955)
(120.00355 -0.0018875256 -0.0062291341)
(120.0035 -0.0027922202 -0.0055226449)
(120.00342 -0.0030697992 -0.0054310129)
(120.0037 -0.0036927694 -0.0051943974)
(120.00362 -0.004253717 -0.0044628002)
(120.00361 -0.0044371372 -0.0042826542)
(120.00369 -0.0051678161 -0.0037217471)
(120.00342 -0.0054066906 -0.0030989594)
(120.00349 -0.0055013237 -0.0028233111)
(120.00354 -0.0062070831 -0.0019191734)
(120.00336 -0.0062662626 -0.0013758582)
(120.00328 -0.0064166603 -0.00047968186)
(120.00227 -0.0045371688 -0.00033613448)
(120.00154 -0.0031109128 -0.00022825241)
(120.00154 -0.0031118444 0.00016887594)
(120.00156 -0.003038796 0.00059334905)
(120.00165 -0.0030108839 0.00085141154)
(120.00161 -0.0026534726 0.0013261585)
(120.00156 -0.0026432592 0.001449851)
(120.00232 -0.0038498951 0.0021287887)
(120.00252 -0.003679406 0.0025796465)
(120.00244 -0.0031423501 0.0029957064)
(120.00243 -0.0030238261 0.0031242613)
(120.00248 -0.0026155971 0.0036753018)
(120.00225 -0.0021781525 0.0038598258)
(120.00229 -0.0019928774 0.0039159463)
(120.00232 -0.0013361005 0.0044353502)
(120.00219 -0.00095830316 0.0044647282)
(120.00215 -0.00032529429 0.004554576)
(120.00313 -0.00046005466 0.006422256)
(120.00313 0.00040001848 0.0064202108)
(120.0032 0.0013051059 0.0062703157)
(120.00338 0.0018591121 0.0062142378)
(120.00333 0.0027714232 0.0055088409)
(120.00326 0.0030585974 0.0054073813)
(120.00354 0.0036896004 0.0051578686)
(120.00347 0.004258154 0.004414636)
(120.00347 0.0044490242 0.004219166)
(120.00355 0.0051936515 0.0036510494)
(120.00327 0.0054398458 0.0030207082)
(120.00335 0.0055367364 0.002732111)
(120.0034 0.0062435329 0.0018211445)
(120.00323 0.0062956511 0.0012693972)
(120.00316 0.0064442179 0.0003663783)
(120.00316 0.0064456789 -0.00049088382)
(120.00323 0.0063059386 -0.001390954)
(120.00341 0.0062533382 -0.0019320017)
(120.00338 0.0055409414 -0.0028330306)
(120.00331 0.0054356196 -0.0031083911)
(120.00361 0.0051858806 -0.0037267926)
(120.00354 0.0044412885 -0.0042869739)
(120.00355 0.0042482956 -0.0044678936)
(120.00365 0.0036800865 -0.0052005745)
(120.00338 0.0030477548 -0.0054373847)
(120.00347 0.0027634623 -0.0055284635)
(120.00353 0.001853564 -0.0062358624)
(120.00336 0.001306024 -0.0062879213)
(120.00329 0.00040687486 -0.0064353226)
(120.00462 0.00057042667 -0.0088302923)
(120.00462 -0.00062548359 -0.0088288813)
(120.00472 -0.001868426 -0.0086146767)
(120.00495 -0.0026183946 -0.0085340119)
(120.00489 -0.0038106169 -0.0075854582)
(120.0048 -0.0042124396 -0.0074040478)
(120.00512 -0.0050619814 -0.0070815976)
(120.00503 -0.0058054456 -0.0061133334)
(120.00503 -0.0060825593 -0.0058398913)
(120.00512 -0.0070496193 -0.0050964945)
(120.00479 -0.0073745759 -0.0042472086)
(120.00488 -0.0075593285 -0.0038479191)
(120.00493 -0.008506511 -0.0026565374)
(120.00471 -0.0085905159 -0.0019068649)
(120.0046 -0.0088060398 -0.0006650027)
(120.00459 -0.0088082818 0.00053030156)
(120.00327 -0.0064183258 0.00037458715)
(120.00227 -0.0045383952 0.00025593051)
(120.00231 -0.0044357434 0.00088448985)
(120.00243 -0.004399852 0.0012686963)
(120.00238 -0.0038896869 0.0019353678)
(120.00344 -0.005515069 0.0027321371)
(120.00335 -0.0054242903 0.0030194599)
(120.00361 -0.0051870604 0.0036523998)
(120.00352 -0.004453674 0.0042212047)
(120.00351 -0.0042713931 0.0044169634)
(120.00357 -0.0037098841 0.0051613338)
(120.00328 -0.0030893147 0.0054127537)
(120.00334 -0.0028102367 0.005519335)
(120.00338 -0.0019076556 0.0062307157)
(120.0032 -0.001363012 0.0062829334)
(120.00452 -0.001885871 0.0085926425)
(120.00443 -0.00063623138 0.0088006406)
(120.00443 0.00056613672 0.0087997063)
(120.00452 0.0018188394 0.0085861097)
(120.00475 0.0025818304 0.0085051866)
(120.00469 0.0037847862 0.0075587131)
(120.0046 0.0041984238 0.007367376)
(120.00493 0.0050582449 0.0070320603)
(120.00485 0.0058106453 0.0060522984)
(120.00485 0.0060953342 0.0057621024)
(120.00494 0.0070768296 0.005010224)
(120.00462 0.0074080547 0.004151319)
(120.00471 0.0075938805 0.0037359991)
(120.00477 0.0085420747 0.0025347617)
(120.00456 0.0086182229 0.0017747172)
(120.00447 0.0088303395 0.00052467438)
(120.00447 0.008830685 -0.00067420269)
(120.00457 0.0086222343 -0.0019203091)
(120.0048 0.0085405111 -0.0026702951)
(120.00475 0.0075887948 -0.003861292)
(120.00467 0.0073942152 -0.0042613394)
(120.00502 0.0070585903 -0.0051074252)
(120.00494 0.0060786575 -0.0058507891)
(120.00496 0.0057905863 -0.0061237794)
(120.00507 0.0050395324 -0.0070939449)
(120.00475 0.0041798684 -0.0074156048)
(120.00485 0.0037699088 -0.0075954326)
(120.00492 0.0025712809 -0.0085443126)
(120.00471 0.0018163227 -0.0086190801)
(120.00638 0.0024329602 -0.011400774)
(120.00628 0.00077052661 -0.011694637)
(120.00629 -0.00084312968 -0.01169239)
(120.0064 -0.002501868 -0.011393728)
(120.00665 -0.0035022189 -0.011286305)
(120.00659 -0.0049988335 -0.01006539)
(120.00649 -0.0055706478 -0.0097327538)
(120.00682 -0.0066915673 -0.0093123994)
(120.00673 -0.0076338285 -0.0080837591)
(120.00673 -0.0080473763 -0.0076742842)
(120.00682 -0.0092744546 -0.0067320658)
(120.00648 -0.0096975305 -0.0056114623)
(120.00657 -0.010033767 -0.0050428718)
(120.00663 -0.011252473 -0.0035474581)
(120.00638 -0.011363459 -0.0025477602)
(120.00626 -0.011663346 -0.00089096025)
(120.00625 -0.011666424 0.00072122329)
(120.00635 -0.011374205 0.0023825089)
(120.00468 -0.0085982687 0.0017758157)
(120.00333 -0.0062717797 0.0012738071)
(120.0035 -0.0062212983 0.0018223814)
(120.00489 -0.0085255172 0.0025317116)
(120.00482 -0.007577875 0.0037297837)
(120.00471 -0.0073987491 0.0041435344)
(120.00502 -0.0070767383 0.0050038826)
(120.00491 -0.0061057538 0.00575557)
(120.0049 -0.0058312744 0.0060471212)
(120.00497 -0.0050863308 0.0070267733)
(120.00462 -0.0042377243 0.0073645713)
(120.0047 -0.0038331946 0.0075607868)
(120.00475 -0.0026402638 0.0085112512)
(120.00642 -0.003527007 0.01124168)
(120.00617 -0.0025189917 0.011353499)
(120.00606 -0.00085214284 0.01164895)
(120.00606 0.00076967584 0.011649523)
(120.00617 0.0024405934 0.011353038)
(120.00641 0.0034572132 0.011245479)
(120.00635 0.0049682705 0.010027034)
(120.00625 0.0055543929 0.0096843622)
(120.0066 0.0066884144 0.0092505852)
(120.00651 0.0076416259 0.0080096703)
(120.00651 0.0080629727 0.0075815142)
(120.00661 0.0093058709 0.0066290275)
(120.00627 0.0097346316 0.0054961836)
(120.00638 0.010070622 0.0049080178)
(120.00645 0.011291093 0.0033993306)
(120.00621 0.011392931 0.0023865059)
(120.00611 0.011687789 0.00071900542)
(120.00611 0.011686692 -0.00089846914)
(120.00623 0.011390726 -0.0025609582)