/*--------------------------------*- C++ -*----------------------------------*\
  =========                 |
  \\      /  F ield         | OpenFOAM: The Open Source CFD Toolbox
   \\    /   O peration     | Website:  https://openfoam.org
    \\  /    A nd           | Version:  7
     \\/     M anipulation  |
\*---------------------------------------------------------------------------*/
FoamFile
{
    version     2.0;
    format      ascii;
    class       volScalarField;
    location    "200";
    object      omega;
}
// * * * * * * * * * * * * * * * * * * * * * * * * * * * * * * * * * * * * * //

dimensions      [0 0 -1 0 0 0 0];

internalField   nonuniform List<scalar> 
24789
(
103707
32164.215
18371.416
13559.856
2241.0596
2240.7472
13565.836
18379.232
32175.128
103738.31
103787.43
32189.77
18388.193
13572.36
2240.7553
2240.9038
13579.235
18397.056
32202.306
103824.66
103875.55
32217.705
18406.582
13586.281
2241.1733
2241.6139
13593.864
18416.199
32231.186
103914.63
103968.21
32248.021
18426.851
13601.897
2242.2495
2243.135
13610.959
18438.193
32263.817
104012.58
104073.39
32283.712
18451.124
13620.92
2244.3011
2245.8
13632.385
18465.359
32303.437
104127.25
104200.65
32328.285
18481.941
13645.405
2247.6381
2249.8772
13660.385
18500.474
32353.969
104269.76
104361.43
32385.859
18522.124
13677.524
2252.5445
2255.6765
13697.144
18546.428
32419.668
104451.97
104567.36
32460.65
18574.642
13719.6
2259.2871
2263.418
13745.247
18606.409
32504.789
104685.17
104829.88
32557.133
18642.879
13774.402
2268.1001
2273.399
13807.578
18683.854
32614.137
104980.88
105162.33
32680.716
18730.642
13845.132
2279.3802
2286.1263
13887.374
18783.079
32754.171
105358.07
105591.08
32839.487
18842.523
13934.799
2293.5876
2301.7464
13988.115
18909.255
32934.768
105849.31
106157.06
33045.237
18984.653
14047.747
2310.5276
2319.8303
14114.405
19069.199
33169.832
106506.09
106922.28
33314.266
19164.607
14188.782
2329.4801
2339.227
14271.779
19271.722
33478.355
107401.47
107969.94
33668.176
19393.023
14364.823
2348.7297
2357.5449
14470.54
19531.477
33886.308
108629.26
109415.45
34140.985
19692.978
14593.442
2364.9619
2370.0526
14742.989
19889.486
34436.924
110346.67
111540.51
34868.246
20157.222
14935.279
2371.1371
2360.0887
15143.794
20484.698
35525.56
113325.97
115978.18
36023.391
20702.056
15253.737
2322.9971
2252.6528
15188.885
20647.312
35977.74
118551.98
120449.42
36796.595
21129.234
15531.352
2222.3548
2211.6643
15684.763
21605.083
38028.747
126134.83
132049.47
39447.377
22174.001
15898.046
2264.3628
2089.5218
16091.066
21790.03
37983.547
124891.47
121862.75
36881.893
21215.373
15689.916
2067.2626
2087.7122
15795.31
21182.348
36655.493
118259.72
114792.78
35910.675
20881.293
15639.934
2117.7852
2135.8117
15412.307
20533.154
35270.406
112112.73
110386.82
34638.901
20175.816
15161.247
2139.5713
2136.7139
14953.285
19899.132
34210.232
109233.06
108320.52
33893.652
19692.386
14793.32
2131.7393
2125.3944
14665.091
19527.113
33636.719
107560.17
106922.19
33422.361
19388.442
14556.82
2118.1252
2110.4341
14463.41
19269.125
33238.994
106372.13
105902.65
33081.384
19164.432
14380.505
2102.58
2094.8117
14306.938
19071.79
32943.484
105496.17
105152.32
32824.197
18989.279
14240.479
2087.2332
2080.0176
14181.312
18915.829
32718.907
104853.41
104601.75
32627.807
18850.333
14127.775
2073.2115
2066.9268
14080.416
18792.117
32546.623
104378.53
104190.28
32476.5
18740.379
14037.688
2061.1727
2056.0264
14000.225
18694.579
32413.384
104019.92
103875.82
32358.884
18653.902
13966.415
2051.4279
2047.4008
13937.476
18618.338
32309.55
103742.58
103630.03
32267.262
18586.887
13911.323
2043.815
2040.7104
13889.151
18559.438
32228.631
103523.88
103436.18
32196.042
18535.19
13868.937
2037.9895
2035.7143
13851.979
18514.068
32165.87
103351.41
103282.79
32140.79
18495.372
13836.333
2033.7707
2032.2204
13823.491
18479.156
32117.14
103214.67
103160.32
32097.746
18464.687
13811.365
2030.9429
2029.9713
13801.5
18451.953
32078.636
103103.1
103057.73
32062.969
18440.306
13791.769
2029.2521
2028.7627
13783.736
18429.721
32046.656
103006.68
102965.76
32033.045
18419.686
13775.44
2028.4275
2028.2831
13768.446
18410.251
32018.173
102917.51
102878.16
32005.489
18400.968
13760.849
2028.2352
2028.3932
13754.577
18392.33
31991.736
102832.7
102797.16
31980.192
18383.883
13747.725
2028.6867
2028.3857
13754.6
18392.561
31992.897
102840.67
102878.08
32004.639
18400.044
13760.129
2027.9623
2027.9402
13766.78
18408.323
32015.923
102911.11
102958.93
32030.486
18417.704
13773.908
2028.0729
2028.3801
13781.624
18427.209
32043.445
102996.5
103048.39
32059.84
18438.001
13789.986
2028.8724
2029.5987
13799.329
18449.412
32075.296
103091.45
103151.56
32095.008
18462.732
13809.877
2030.5742
2031.8428
13821.797
18477.169
32114.484
103204.77
103276.54
32138.912
18494.051
13835.347
2033.4145
2035.3351
13850.823
18512.726
32164.077
103344.32
103432.07
32194.979
18534.467
13868.406
2037.6153
2040.3015
13888.543
18558.87
32227.92
103519.66
103630.54
32267.679
18587.166
13911.535
2043.3973
2046.9264
13937.622
18618.767
32310.314
103743.16
103880.96
32360.614
18655.065
13967.27
2050.9055
2055.3835
14000.895
18695.716
32415.195
104024.85
104199.13
32478.972
18742.03
14038.867
2060.3971
2065.9704
14081.375
18793.697
32549.211
104388.85
104616.78
32630.792
18852.138
14128.952
2072.0474
2078.6015
14182.171
18917.456
32722.005
104872.05
105177.52
32827.925
18991.116
14241.487
2085.5642
2092.8657
14307.604
19073.49
32947.566
105524.95
105936.62
33086.12
19166.353
14381.317
2100.3933
2108.015
14463.79
19270.689
33243.365
106405.74
106954.43
33426.037
19389.89
14557.239
2115.5447
2122.7322
14665.551
19528.406
33638.783
107583.51
108332.5
33895.89
19695.462
14795.608
2129.1634
2134.3345
14959.697
19907.214
34217.157
109233.74
110381.34
34665.473
20197.589
15177.382
2137.6464
2135.3663
15447.9
20590.672
35363.699
112084.06
114873.38
36174.372
20962.796
15672.159
2116.3156
2081.4227
15727.263
21116.459
36597.169
118380.87
121292.85
36840.566
21157.503
15574.729
2061.0193
2078.0747
16493.884
22142.356
38341.239
122992.81
132471.37
39662.114
22271.187
15990.002
2253.9607
2174.5458
15439.354
21211.775
37097.33
121882.86
123076.75
36640.59
20648.002
14877.026
2209.0541
2248.7786
15243.299
20782.812
36476.978
120244.95
116657.54
36353.392
20840.144
15355.798
2306.6314
2340.1417
15222.521
20560.949
35609.181
113604.55
111635.42
34892.509
20195.201
14989.017
2349.7898
2349.8549
14785.942
19913.475
34440.029
110324.83
109325.38
34113.451
19702.756
14626.933
2345.8834
2339.3899
14497.897
19532.921
33846.626
108514.38
107844.13
33624.115
19390.039
14388.394
2331.3668
2322.6175
14293.473
19266.596
33432.839
107270.33
106782.98
33267.251
19157.707
14208.828
2313.5233
2304.4654
14133.419
19060.95
33121.417
106361.36
106003.79
32994.631
18974.613
14065.21
2295.5777
2287.1096
14004.409
18897.66
32882.204
105690.71
105426.06
32784.713
18829.086
13949.459
2279.1075
2271.7344
13900.905
18768.213
32697.732
105190.23
104990.29
32622.501
18714.19
13857.188
2264.9622
2258.9276
13818.985
18666.536
32554.976
104808.33
104653.91
32496.888
18624.4
13784.641
2253.5139
2248.7502
13755.093
18587.408
32444.07
104509.29
104387.7
32398.946
18554.759
13728.462
2244.4935
2240.7966
13705.744
18526.129
32357.543
104272.26
104178.11
32322.809
18500.896
13685.072
2237.5445
2234.811
13667.733
18478.943
32290.687
104087.18
104014.46
32264.153
18459.603
13651.842
2232.4422
2230.5232
13638.704
18442.747
32238.988
103941.39
103883.64
32218.329
18427.688
13626.336
2228.8895
2227.6859
13616.387
18414.654
32198.393
103824.49
103777.64
32182.058
18402.746
13606.625
2226.6651
2225.9517
13598.582
18391.958
32165.054
103724.68
103683.16
32150.998
18381.777
13590.321
2225.381
2225.0532
13583.476
18372.351
32135.788
103634.51
103597.92
32123.462
18363.402
13576.264
2224.8437
2225.1572
13571.202
18356.11
32111.532
103561.97
103750.74
32176.741
18379.375
13565.552
2240.4728
2240.3639
13571.51
18387.013
32187.27
103779.19
103825.96
32201.592
18395.841
13577.981
2240.4942
2240.7994
13585.148
18404.996
32214.424
103862.91
103915.27
32230.637
18415.173
13592.782
2241.2656
2241.9428
13601.158
18425.738
32245.373
103956.91
104015.41
32264.079
18437.759
13610.363
2242.8478
2244.0302
13620.686
18450.605
32281.922
104064.94
104131.94
32304.288
18465.355
13632.145
2245.5067
2247.3434
13645.418
18481.804
32327.089
104193.87
104276.71
32355.532
18500.955
13660.514
2249.5548
2252.1997
13677.826
18522.399
32385.347
104357.2
104460.39
32421.692
18547.232
13697.496
2255.2786
2258.8438
13720.176
18575.331
32460.801
104565.42
104695.43
32507.442
18607.656
13745.877
2262.8974
2267.4966
13775.33
18644.142
32558.254
104830.77
104994.13
32617.901
18685.835
13808.71
2272.675
2278.5139
13846.697
18732.867
32683.393
105167.93
105376.86
32759.79
18786.256
13889.301
2285.0659
2292.2812
13937.283
18846.19
32844.616
105605.41
105877.89
32943.042
18914.005
13991.033
2300.106
2308.4717
14051.21
18990.03
33053.526
106184.03
106549.28
33181.537
19075.8
14118.358
2317.24
2326.2216
14193.198
19171.873
33326.376
106967.77
107465.53
33493.715
19280.14
14276.567
2335.1296
2343.6322
14370.203
19402.417
33684.59
108041.7
108725.44
33907.345
19542.881
14476.777
2351.2432
2357.2172
14601.052
19707.02
34167.183
109534.79
110518.77
34472.32
19906.762
14751.768
2360.5378
2359.5536
14943.876
20175.696
34909.54
111785.72
113674.35
35568.459
20503.792
15151.513
2346.9339
2309.2471
15256.72
20723.497
36094.429
116495.88
119665.51
36163.028
20672.123
15156.629
2242.8574
2214.2627
15326.142
21017.935
36827.568
121501.28
126034.64
38028.311
21581.429
15645.976
2196.3811
2244.532
15805.342
22086.371
39392.071
132285.11
2888.8996
14776.529
21529.034
39530.872
135704.95
130614.78
39905.717
22466.546
15987.863
2345.3986
2068.7136
17026.381
23132.324
40261.524
129670.31
124636.69
38385.763
22091.232
16164.63
2177.2531
2168.2075
15372.762
21218.77
37221.905
122913.48
121992.41
36618.675
20806.938
15121.449
2203.7143
2256.5267
15341.626
20868.361
36463.123
119219.47
116001.05
36329.07
20874.479
15396.513
2317.8749
2350.3566
15237.455
20568.884
35580.566
113189.26
111368.24
34879.61
20199.282
14996.761
2358.5483
2356.9357
14790.709
19916.154
34433.954
110150.4
109205.59
34106.777
19703.398
14629.543
2351.449
2343.6977
14498.976
19532.181
33840.219
108430.14
107783.93
33618.099
19388.469
14388.459
2334.6601
2325.0972
14292.808
19264.48
33427.176
107226.64
106751.45
33262.253
19155.458
14207.821
2315.3833
2305.834
14132.171
19058.664
33116.95
106337.24
105985.85
32990.73
18972.435
14063.919
2296.5903
2287.8483
14003.113
18895.633
32878.84
105677.26
105416.16
32781.868
18827.288
13948.274
2279.6514
2272.1308
13899.823
18766.622
32695.298
105182.71
104985.03
32620.583
18712.893
13856.292
2265.2653
2259.1611
13818.206
18665.452
32553.442
104804.5
104651.36
32495.771
18623.601
13784.079
2253.7084
2248.9144
13754.741
18586.875
32443.325
104507.72
104386.98
32398.549
18554.472
13728.291
2244.6589
2240.9536
13705.687
18526.013
32357.405
104272.17
104178.59
32322.889
18500.936
13685.138
2237.6959
2234.9691
13667.934
18479.152
32291.021
104088.54
104016.73
32264.756
18459.999
13652.185
2232.6116
2230.7062
13639.149
18443.288
32239.817
103944.29
103887.4
32219.451
18428.427
13626.94
2229.0897
2227.8302
13616.77
18415.145
32199.085
103826.01
103778.65
32182.51
18403.096
13606.934
2226.7999
2226.0687
13598.738
18392.128
32165.244
103724.9
103683.38
32151.107
18381.893
13590.453
2225.4959
2225.1563
13583.47
18372.326
32135.7
103634.04
103597.48
32123.307
18363.341
13576.261
2224.9342
2225.2293
13571.097
18355.966
32111.302
103561.26
102839.38
31992.253
18391.771
13753.848
2028.3439
2028.1159
13760.098
18399.647
32003.033
102870.3
102917.46
32017.247
18408.727
13766.942
2028.1093
2028.2602
13774.245
18417.824
32029.745
102953.92
103004.77
32045.425
18428.014
13782.085
2028.5639
2029.068
13790.553
18438.416
32059.587
103045.11
103100.88
32077.473
18450.316
13799.881
2029.7838
2030.763
13810.302
18462.98
32094.605
103148.35
103212.93
32116.14
18477.683
13822.031
2032.0157
2033.5937
13835.388
18493.782
32137.81
103271.72
103348.96
32164.694
18512.545
13850.513
2035.5013
2037.8152
13868.033
18533.659
32193.122
103424.95
103522.06
32227.713
18558.149
13887.867
2040.5242
2043.6737
13910.646
18585.726
32264.93
103620.85
103743.83
32309.34
18617.514
13936.557
2047.2579
2051.3232
13965.924
18653.032
32357.124
103870.33
104022.62
32413.04
18693.609
13999.21
2055.8987
2061.0535
14036.865
18738.994
32474.028
104184.57
104379.11
32545.003
18790.362
14078.885
2066.8169
2073.1773
14126.268
18848.032
32624.081
104594.46
104851.99
32715.952
18913.186
14179.182
2080.0794
2087.4937
14238.439
18986.191
32819.446
105143.57
105490.63
32939.456
19068.452
14304.414
2095.3139
2103.4552
14378.208
19160.79
33075.705
105887.36
106353.91
33233.837
19265.48
14460.953
2111.7525
2120.0231
14555.158
19385.17
33416.063
106887.65
107513.93
33631.866
19525.119
14664.406
2127.9265
2134.9617
14795.16
19693.062
33890.437
108250
109142.99
34212.57
19904.327
14958.472
2140.4478
2143.4827
15172.114
20188.735
34649.813
110262.54
111943.67
35307.77
20560.32
15431.06
2139.2688
2118.3375
15658.218
20911.89
35995.883
114594.55
117737.25
36558.696
21173.545
15813.382
2083.4974
2060.6677
15866.63
21338.659
36919.65
120993.95
125256.53
38163.364
21886.705
16158.338
2080.7369
2257.9163
15736.542
22169.934
39698.747
133259.99
127452.1
38216.451
21612.657
15612.912
2207.3174
2221.2324
15716.196
21330.795
37099.169
120472.84
119170.35
36057.597
20647.983
15124.94
2252.4192
2321.9131
15247.077
20708.866
36091.22
116339.2
113519.05
35569.402
20500.841
15151.248
2359.4138
2371.6414
14945.567
20173.036
34897.522
111628.27
110380.31
34450.43
19898.731
14749.927
2371.1061
2366.1785
14597.126
19696.777
34143.753
109416.48
108624.29
33886.991
19532.762
14472.019
2358.6782
2349.7025
14365.396
19392.923
33666.222
107956.34
107393.16
33476.937
19271.11
14271.568
2339.9684
2330.0278
14188.552
19163.74
33311.69
106909.59
106501.83
33168.713
19068.384
14113.802
2320.1666
2310.721
14047.363
18983.775
33042.942
106148.17
105848.98
32934.057
18908.496
13987.404
2301.7879
2293.567
13934.544
18841.9
32837.691
105585.32
105360.85
32754.15
18782.644
13886.805
2286.0291
2279.2804
13845.122
18730.384
32679.452
105158.51
104986.23
32614.847
18683.859
13807.278
2273.2605
2267.9732
13774.597
18642.932
32556.212
104826.35
104690.37
32505.682
18606.56
13745.053
2263.2456
2259.124
13719.795
18574.648
32459.509
104562.29
104456.01
32420.336
18546.42
13696.829
2255.4613
2252.3439
13677.591
18521.949
32384.406
104355.04
104273.52
32354.519
18500.356
13659.968
2249.6257
2247.4078
13645.453
18481.726
32326.733
104193.95
104131.02
32303.975
18465.201
13631.904
2245.5206
2244.059
13621.085
18451.023
32282.31
104067.34
104016.74
32264.511
18438.112
13610.502
2242.8717
2242.0307
13602.172
18426.888
32246.82
103962.94
103919.84
32232.162
18416.286
13593.527
2241.3583
2240.9504
13586.623
18406.721
32216.648
103870.69
103830.69
32203.456
18397.267
13579.001
2240.6421
2240.519
13572.679
18388.339
32188.707
103782.56
103745.62
32176.336
18379.481
13565.628
2240.5299
2240.3678
13566.448
18380.155
32176.98
103748.89
103786.83
32189.141
18387.607
13571.751
2240.2288
2240.3802
13578.541
18396.209
32201.153
103822.35
103869.67
32215.842
18405.31
13585.186
2240.6506
2241.1241
13593.053
18415.207
32229.669
103909.94
103962.74
32246.542
18425.911
13601.091
2241.78
2242.7123
13610.597
18437.745
32263.02
104009.56
104070.37
32283.123
18450.832
13620.64
2243.8909
2245.4045
13632.585
18465.581
32303.614
104127.42
104200.03
32328.472
18482.157
13645.5
2247.2303
2249.4706
13660.905
18501.147
32354.834
104272.12
104362.66
32386.646
18522.737
13677.891
2252.1044
2255.2124
13697.939
18547.505
32421.139
104456.05
104570.53
32462.145
18575.725
13720.295
2258.7716
2262.8597
13746.376
18608.012
32507.069
104691.13
104835.62
32559.676
18644.661
13775.598
2267.4659
2272.682
13809.271
18686.278
32617.612
104989.46
105171.68
32684.84
18733.475
13847.038
2278.5442
2285.1412
13889.851
18786.722
32759.532
105370.81
105605.92
32845.834
18846.795
13937.652
2292.3895
2300.288
13991.591
18914.444
32942.571
105868.26
106178.23
33054.231
18990.591
14051.634
2308.7457
2317.689
14119.015
19076.22
33180.445
106530.72
106946.43
33325.964
19172.564
14193.959
2326.929
2336.2602
14278.136
19281.25
33491.588
107424.75
107987.88
33683.436
19404.841
14372.885
2345.34
2353.7408
14481.957
19547.757
33906.408
108643.88
109432.83
34171.676
19716.768
14610.044
2360.6772
2365.0846
14766.649
19924.452
34489.552
110391.6
111638.36
34937.665
20202.675
14965.888
2365.2785
2354.335
15186.928
20551.852
35624.696
113498.95
116392.89
36300.843
20799.174
15299.542
2316.2371
2246.8632
15167.184
20674.521
36163.284
119458.56
121301.4
36827.957
20971.72
15242.697
2214.7906
2196.8533
15854.258
21743.398
38084.41
124632.12
1027.1791
613.40218
827.49659
2073.8747
16077.477
21778.177
37999.344
125154.05
124047.92
37323.397
21192.779
15289.069
2179.834
133604.52
39427.984
21659.151
14987.319
2898.3893
3219.8063
15307.128
21968.827
39660.603
132298.02
133090.97
40212.953
22178.73
15392.684
3230.7244
2522.2579
15458.89
21900.688
39118.873
129243.5
1483.37
1276.9601
682.68021
846.71159
180.67658
191.01991
189.50607
180.67622
179.96209
184.66318
184.66023
179.48174
103563.22
32111.285
18355.05
13570.112
2225.4216
2225.1022
13575.651
18362.179
32120.939
103588.18
103634.84
32135.142
18371.035
13582.229
2225.2333
2225.5517
13589.319
18380.066
32147.734
103670.93
103723.09
32163.814
18390.263
13597.056
2226.0592
2226.7811
13605.344
18400.654
32178.194
103763.56
103820.66
32196.554
18412.579
13614.553
2227.7519
2229.0131
13624.873
18425.397
32214.212
103868.83
103936.87
32236.8
18440.46
13636.738
2230.6029
2232.5505
13650.116
18456.953
32259.467
103997.88
104081
32288.02
18476.392
13665.593
2234.8997
2237.6772
13683.201
18498.046
32317.835
104160.79
104265.15
32354.495
18523.365
13703.471
2240.9269
2244.6791
13726.435
18551.682
32393.668
104369.98
104500.95
32440.551
18584.363
13752.633
2248.9521
2253.7865
13782.423
18621.066
32491.263
104635.83
104798.36
32550.849
18663.132
13816.304
2259.2339
2265.3717
13854.769
18710.519
32616.332
104970.38
105176.96
32692.939
18764.565
13898.178
2272.2497
2279.8173
13947.057
18825.282
32778.079
105401.8
105670.12
32877.075
18894.178
14001.978
2288.0252
2296.7877
14063.475
18971.467
32988.294
105971.27
106330.35
33117.046
19058.709
14132.178
2305.978
2315.4185
14208.787
19156.439
33262.5
106739.64
107224.01
33430.613
19266.946
14294.508
2324.8708
2334.0184
14391.434
19392.588
33623.284
107782.09
108445.65
33850.489
19538.461
14502.877
2342.358
2349.0776
14633.845
19711.115
34120.761
109236.64
110212.99
34455.203
19923.79
14792.797
2353.1379
2352.7918
14988.985
20198.032
34899.732
111461.53
113370.49
35551.513
20521.24
15192.989
2340.3396
2303.4894
15283.115
20720.997
36059.877
116187.38
119058.52
36115.114
20672.553
15177.397
2242.9789
2210.6578
15395.553
20997.441
36713.068
120742.71
123736.38
37199.267
21130.44
15256.72
2193.1475
17039.389
23251.305
40696.448
130983.39
128209.52
40967.062
23614.989
17452.597
2110.365
2407.7441
16715.461
23156.718
40594.744
127494.93
128313.04
38833.878
21813.244
15385.423
2556.1916
2208.4599
16066.285
22052.471
38341.202
124017.46
123749.39
37203.022
21131.771
15257.039
2192.4248
2210.1222
15395.612
20998.647
36716.511
120753.63
119070.59
36118.673
20673.954
15177.698
2242.559
2303.0878
15284.024
20722.703
36063.271
116198.87
113381.47
35554.021
20522.487
15193.654
2339.9094
2352.3917
14989.653
20199.056
34901.638
111475.05
110226.61
34457.54
19924.932
14793.449
2352.766
2348.7765
14634.936
19712.762
34123.946
109251.88
108460.21
33854.011
19540.321
14504.045
2342.116
2333.871
14393.074
19394.904
33627.332
107797.83
107238.83
33434.878
19269.425
14296.195
2324.7981
2315.4514
14210.964
19159.384
33267.273
106755.65
106345.5
33122.053
19061.831
14134.407
2306.0946
2297.0167
14066.266
18975.108
32993.874
105988.05
105685.53
32882.712
18897.881
14004.716
2288.3168
2280.1832
13950.13
18829.218
32783.854
105417.69
105191.03
32698.357
18768.259
13900.963
2272.6286
2265.7983
13857.961
18714.492
32622.029
104986.75
104813.6
32556.351
18666.974
13819.292
2259.634
2254.2162
13785.838
18625.242
32497.167
104653.71
104518.29
32446.424
18588.423
13755.757
2249.3745
2245.1565
13730.185
18556.264
32400.2
104390.93
104285.22
32361.07
18527.851
13706.9
2241.4233
2238.2223
13687.139
18502.914
32324.781
104183.13
104100.67
32294.544
18480.917
13669.07
2235.4157
2233.0998
13654.037
18461.749
32266.204
104019.41
103955.44
32242.998
18444.818
13640.096
2231.111
2229.5765
13628.779
18430.141
32220.819
103890.26
103839.24
32202.747
18416.952
13617.929
2228.2776
2227.3105
13608.954
18405.051
32184.211
103782.2
103737.87
32168.991
18394.015
13599.958
2226.5256
2226.0194
13592.446
18383.8
32152.662
103685.96
103645.2
32139.085
18374.014
13584.55
2225.6294
2225.4647
13577.941
18364.794
32124.067
103596.31
103557.07
32111.425
18355.712
13570.667
2225.3564
2225.5453
13564.774
18347.259
32097.457
103512.36
2240.4363
13564.227
18377.378
32172.694
103734.03
103777.81
32186.362
18385.765
13570.341
2240.3451
2240.4865
13576.989
18394.325
32198.35
103812.48
103863.08
32213.735
18403.877
13584.098
2240.7761
2241.2454
13591.65
18413.474
32227.146
103901.4
103955.86
32244.219
18424.305
13599.868
2241.9121
2242.8259
13608.913
18435.65
32259.99
103999.75
104061.56
32280.077
18448.732
13619.037
2244.0072
2245.5036
13630.454
18462.893
32299.663
104115.05
104188.09
32324.414
18479.417
13643.436
2247.3417
2249.5831
13658.402
18497.905
32349.989
104257.03
104348.64
32381.829
18519.522
13675.496
2252.2627
2255.4194
13695.161
18543.881
32415.758
104439.97
104556.18
32456.75
18572.111
13717.597
2259.0463
2263.1956
13743.153
18603.814
32500.852
104674.59
104820.24
32553.138
18640.214
13772.236
2267.8953
2273.2015
13805.19
18680.936
32609.79
104971.06
105151.98
32676.169
18727.493
13842.657
2279.192
2285.978
13884.884
18779.794
32749.212
105345.85
105578.42
32834.398
18839.22
13932.371
2293.5499
2301.8592
13985.686
18905.853
32929.355
105834.7
106140.54
33039.62
18981.262
14045.422
2310.8393
2320.3841
14112.206
19065.826
33163.979
106486.8
106899.89
33308.154
19161.307
14186.771
2330.313
2340.3713
14270.14
19268.692
33472.217
107376.92
107944.83
33662.625
19390.668
14363.854
2350.1866
2359.2799
14470.783
19530.537
33882.477
108607.26
109403.91
34140.446
19694.743
14595.811
2366.8692
2371.9162
14748.782
19896.563
34446.033
110363.12
111614.54
34893.735
20170.87
14944.274
2372.5474
2360.4447
15150.125
20498.607
35564.792
113501.28
116324.01
36087.507
20706.875
15245.956
2323.0469
2253.6557
15123.991
20645.388
36051.699
119151.59
120453.92
37094.324
21328.736
15715.421
2222.6937
2208.9046
15613.994
21612.325
38213.948
127418.38
133220.95
39717.743
22169.778
15734.606
2259.7247
2082.4288
16157.746
21885.251
38160.665
125230.45
122888.06
37219.748
21217.561
15371.486
2169.9521
2176.0019
15440.242
21208.831
37085.104
121824.77
122959.82
38338.173
22138.265
16491.17
2079.9131
2198.3119
15852.03
21738.42
38078.902
124601.29
126014.97
38022.561
21575.52
15642.954
2197.3982
2074.6272
16074.096
21772.348
37993.588
125145.84
124038.87
37319.77
21190.603
15288.172
2180.0717
2202.4072
15518.616
21112.543
36839.867
120411.65
118784.15
36090.014
20684.102
15196.554
2235.0519
2296.1822
15269.036
20697.845
36013.496
116094.09
113323.23
35549.328
20518.403
15188.764
2335.8874
2349.7395
14989.645
20201.285
34906.631
111446.52
110215.12
34462.602
19928.255
14794.976
2350.8408
2347.297
14636.885
19716.2
34128.885
109248.67
108462.92
33858.299
19543.305
14505.85
2340.9078
2332.8406
14394.56
19397.365
33631.046
107804.32
107247.59
33438.125
19271.472
14297.44
2323.91
2314.6798
14211.95
19161.053
33270.047
106764.95
106354.69
33124.475
19063.254
14135.263
2305.4389
2296.4701
14067.026
18976.369
32996.022
105996.33
105692.64
32884.673
18899.059
14005.459
2287.8868
2279.854
13950.907
18830.395
32785.776
105424.29
105197.13
32700.244
18769.438
13901.768
2272.3986
2265.6324
13858.707
18715.586
32623.763
104992.19
104818.64
32557.99
18668.031
13820.048
2259.5232
2254.1226
13786.345
18626.012
32498.342
104656.92
104520.49
32447.24
18588.983
13756.16
2249.2934
2245.066
13730.187
18556.376
32400.353
104390.52
104283.68
32360.742
18527.667
13706.741
2241.3234
2238.1197
13686.779
18502.508
32324.17
104180.82
104098.47
32293.876
18480.463
13668.701
2235.3284
2233.0139
13653.703
18461.33
32265.596
104017.6
103954.2
32242.557
18444.5
13639.841
2231.0719
2229.5048
13628.33
18429.631
32220.074
103887.59
103836.2
32201.85
18416.348
13617.449
2228.1968
2227.2272
13608.413
18404.404
32183.286
103779.3
103735.24
32168.112
18393.405
13599.47
2226.4414
2225.9747
13592.099
18383.391
32152.142
103684.85
103644.93
32138.864
18373.815
13584.383
2225.597
2225.411
13577.66
18364.503
32123.687
103595.1
103556.02
32110.915
18355.36
13570.392
2225.2913
2225.4268
13564.261
18346.689
32096.701
103510.12
2225.3664
13570.881
18355.711
32111.226
103560.94
103597.96
32123.265
18363.19
13576.283
2225.0559
2225.2152
13583.088
18371.794
32135.222
103632.63
103681.23
32150.253
18381.212
13590.075
2225.5373
2226.0663
13597.971
18391.111
32164.025
103721.1
103774.35
32180.974
18401.967
13606.209
2226.7889
2227.7662
13615.68
18413.708
32197.196
103819.93
103880.98
32217.368
18426.98
13625.966
2229.0191
2230.6109
13637.981
18441.776
32237.777
103937.21
104011.09
32262.937
18458.709
13651.322
2232.542
2234.8766
13666.845
18477.731
32289.142
104082.44
104173.14
32320.988
18499.578
13684.211
2237.6163
2240.8416
13704.489
18524.451
32355.312
104265.56
104380.48
32396.385
18552.949
13727.221
2244.5474
2248.7974
13753.498
18585.281
32441.165
104500.81
104645.38
32493.792
18622.22
13783.108
2253.5905
2259.0104
13817.183
18664.153
32551.664
104798.5
104981.26
32619.332
18711.997
13855.673
2265.1037
2271.9208
13899.258
18765.963
32694.492
105179.64
105415.37
32781.818
18827.205
13948.234
2279.4013
2287.5072
14003.347
18896.06
32879.593
105677.35
105988.03
32992.636
18973.711
14064.824
2296.1369
2305.1849
14133.608
19060.804
33120.113
106340.68
106756.68
33267.098
19158.869
14210.176
2314.4675
2323.7693
14296.177
19269.521
33434.385
107234.08
107796.09
33628.681
19395.744
14393.277
2332.7363
2340.8615
14505.027
19541.919
33855.327
108450.21
109240.31
34127.195
19715.153
14636.067
2347.2738
2350.8533
14794.657
19927.607
34460.835
110203.05
111439.07
34906.345
20201.095
14989.458
2349.7491
2335.8925
15188.91
20518.239
35547.664
113313.17
116087.86
36013.533
20698.219
15269.284
2296.0683
2234.9108
15197.675
20685.283
36090.816
118775.59
120407.82
36844.475
21115.478
15520.663
2202.2436
2052.4089
15970.709
21372.065
36870.441
120220.37
117425.57
36115.703
20956.072
15692.438
2057.502
2097.1994
15556.417
20774.312
35768.421
114608.74
112098.91
35241.867
20491.013
15369.997
2121.5753
2128.874
15140.121
20156.008
34624.553
110449.16
109331.8
34213.08
19892.327
14943.627
2128.3376
2125.1655
14790.72
19692.966
33903.513
108414.81
107645.14
33648.815
19530.56
14665.268
2120.1537
2113.9441
14558.615
19392.711
33432.782
106989.53
106430.12
33248.614
19273.116
14465.062
2107.0489
2099.8462
14382.477
19167.924
33088.293
105945.22
105533.05
32949.635
19074.49
14308.102
2092.5482
2085.3971
14241.849
18991.449
32827.857
105176.18
104874.96
32722.495
18917.354
14181.831
2078.4732
2071.945
14128.572
18851.483
32629.252
104611.62
104389.62
32548.59
18792.779
14080.381
2065.8435
2060.2771
14038.09
18740.833
32476.551
104191.89
104025.26
32414.285
18694.577
13999.71
2055.2445
2050.7794
13966.496
18653.852
32358.061
103873.1
103743.71
32309.579
18617.783
13936.548
2046.7766
2043.2844
13911.032
18586.277
32265.491
103623.24
103522.66
32228.002
18558.417
13887.868
2040.1791
2037.5391
13868.443
18534.254
32193.75
103427.72
103350.05
32165.086
18512.889
13850.581
2035.2518
2033.3834
13835.815
18494.375
32138.388
103274.1
103212.59
32116.222
18477.85
13821.976
2031.7984
2030.5655
13810.738
18463.482
32094.979
103150.28
103100.4
32077.481
18450.444
13799.813
2029.5925
2028.8811
13790.844
18438.761
32059.729
103046.05
103002.76
32045
18427.856
13781.784
2028.3417
2028.0291
13774.308
18417.881
32029.466
102953.65
102915.06
32016.581
18408.366
13766.46
2027.8547
2027.8941
13760.173
18399.771
32002.949
102871.79
102843.71
31992.827
18392.141
13753.916
2028.2834
2028.3688
13753.788
18391.505
31991.296
102836.01
102872.94
32003.076
18399.002
13759.306
2027.9315
2027.9047
13766.053
18407.345
32014.45
102906.56
102953.07
32028.756
18416.536
13772.985
2028.0273
2028.3391
13780.774
18426.108
32041.808
102991.16
103042.34
32057.967
18436.721
13788.982
2028.8293
2029.5543
13798.262
18447.973
32073.196
103085.5
103142.56
32092.108
18460.731
13808.308
2030.5119
2031.7873
13820.089
18474.921
32111.212
103195.16
103264.07
32134.899
18491.305
13833.203
2033.3651
2035.3159
13848.605
18509.859
32159.852
103331.17
103418.39
32190.534
18531.455
13866.09
2037.637
2040.3834
13886.201
18555.765
32223.338
103506.2
103615.81
32262.711
18583.767
13908.945
2043.5428
2047.1542
13934.987
18615.253
32305.181
103728.85
103864.86
32354.893
18651.122
13964.254
2051.2163
2055.8011
13997.729
18691.504
32409.166
104008.24
104179.18
32472.255
18737.467
14035.507
2060.94
2066.7099
14077.943
18788.914
32541.978
104365.66
104588.41
32622.971
18847.14
14125.416
2073.0341
2079.8908
14178.837
18912.54
32713.898
104838.93
105138.01
32819.288
18986.2
14238.272
2087.1839
2094.8435
14304.77
19068.813
32938.673
105480.79
105887.86
33076.907
19161.827
14378.731
2102.7148
2110.6577
14461.725
19266.677
33234.692
106356.47
106907.47
33418.509
19386.408
14555.55
2118.451
2125.8079
14663.941
19525.272
33633.154
107545.14
108306.66
33890.51
19690.88
14792.49
2132.2444
2137.287
14952.436
19897.622
34207.107
109219.68
110374.88
34635.959
20174.346
15160.463
2140.2068
2136.5039
15411.369
20531.623
35267.9
112101.04
114781.6
35907.416
20879.662
15639.121
2118.6087
2088.6059
15794.61
21180.73
36651.961
118246.88
121848.08
36878.219
21214.197
15690.075
2068.2401
2090.6723
16091.798
21789.995
37983.162
124874.49
132019.35
39466.6
22174.431
15896.78
2265.7835