/*--------------------------------*- C++ -*----------------------------------*\
  =========                 |
  \\      /  F ield         | OpenFOAM: The Open Source CFD Toolbox
   \\    /   O peration     | Website:  https://openfoam.org
    \\  /    A nd           | Version:  7
     \\/     M anipulation  |
\*---------------------------------------------------------------------------*/
FoamFile
{
    version     2.0;
    format      ascii;
    class       volScalarField;
    location    "200";
    object      p;
}
// * * * * * * * * * * * * * * * * * * * * * * * * * * * * * * * * * * * * * //

dimensions      [1 -1 -2 0 0 0 0];

internalField   nonuniform List<scalar> 
24789
(
101301
101301
101301
101301
101300.89
101299.47
101299.6
101299.6
101299.6
101299.59
101298.11
101298.12
101298.12
101298.12
101297.97
101296.39
101296.54
101296.54
101296.54
101296.54
101294.86
101294.86
101294.86
101294.86
101294.71
101292.92
101293.07
101293.07
101293.07
101293.07
101291.15
101291.15
101291.15
101291.15
101291
101288.94
101289.1
101289.1
101289.1
101289.09
101286.89
101286.89
101286.89
101286.89
101286.73
101284.35
101284.51
101284.51
101284.51
101284.51
101281.93
101281.93
101281.93
101281.92
101281.77
101278.96
101279.1
101279.11
101279.11
101279.11
101276.02
101276.02
101276.01
101276.01
101275.89
101272.5
101272.59
101272.59
101272.6
101272.6
101268.8
101268.79
101268.78
101268.78
101268.75
101264.56
101264.5
101264.51
101264.52
101264.52
101259.7
101259.69
101259.68
101259.67
101259.84
101254.47
101254.13
101254.13
101254.15
101254.15
101247.8
101247.8
101247.79
101247.79
101248.32
101241.26
101240.5
101240.48
101240.49
101240.49
101232.03
101232.05
101232.05
101232.08
101233.09
101223.58
101222.32
101222.26
101222.23
101222.2
101210.72
101210.78
101210.84
101210.94
101212.47
101199.39
101197.58
101197.42
101197.32
101197.23
101181.16
101181.3
101181.46
101181.69
101183.79
101164.93
101162.5
101162.19
101161.94
101161.75
101138.7
101138.96
101139.31
101139.74
101142.51
101115.06
101112.21
101111.65
101111.17
101110.81
101072.02
101072.49
101073.13
101073.83
101076.29
101034.63
101031.18
101030.16
101029.25
101028.69
101011.68
101012.34
101013.89
101015.86
101023.84
100920.44
100915.15
100913.42
100912.53
100911.41
100319.02
100342.13
100358.06
100377.11
100553.05
100878.89
100827.71
100817.71
100808.19
100794.54
100976.42
100990.57
100996.49
101003.96
101032.39
101192.8
101153.24
101143.5
101133.22
101116.22
101485.62
101512.69
101534.55
101553.14
101559.41
101130.86
100940.79
100919.96
100903.62
100876.56
101024.37
101029.63
101029.98
101030.08
101041.11
100797.38
100574.27
100547
100520.91
100486.85
100493.63
100502.07
100506.03
100513.96
100616.06
100927.37
100920.74
100919.56
100918.9
100918.49
101010.33
101011.05
101012.41
101014.06
101021.92
101034.55
101032.13
101031.27
101030.5
101029.98
101073.21
101073.6
101074.15
101074.76
101076.88
101116
101113.22
101112.72
101112.31
101112.02
101139.84
101140.06
101140.34
101140.72
101143.59
101165.83
101163.24
101162.96
101162.76
101162.61
101181.69
101181.8
101181.93
101182.13
101184.42
101199.82
101197.84
101197.69
101197.61
101197.53
101210.88
101210.93
101210.97
101211.07
101212.77
101223.79
101222.37
101222.31
101222.29
101222.26
101232.02
101232.04
101232.04
101232.08
101233.22
101241.34
101240.47
101240.45
101240.46
101240.45
101247.75
101247.75
101247.74
101247.74
101248.36
101254.48
101254.08
101254.09
101254.1
101254.1
101259.65
101259.65
101259.64
101259.63
101259.85
101264.55
101264.47
101264.48
101264.49
101264.49
101268.78
101268.77
101268.77
101268.76
101268.73
101272.49
101272.58
101272.59
101272.59
101272.59
101276.01
101276.01
101276.01
101276
101275.87
101278.95
101279.11
101279.11
101279.11
101279.11
101281.94
101281.94
101281.94
101281.93
101281.76
101284.34
101284.52
101284.52
101284.52
101284.52
101286.9
101286.9
101286.9
101286.9
101286.72
101288.93
101289.11
101289.11
101289.11
101289.11
101291.17
101291.17
101291.17
101291.17
101290.99
101292.91
101293.09
101293.09
101293.09
101293.09
101294.88
101294.88
101294.88
101294.88
101294.71
101296.39
101296.56
101296.57
101296.56
101296.56
101298.13
101298.14
101298.14
101298.14
101297.97
101299.47
101299.64
101299.64
101299.63
101299.63
101301.07
101301.07
101301.07
101301.06
101300.9
101299.51
101299.63
101299.63
101299.63
101299.63
101298.16
101298.16
101298.17
101298.16
101298
101296.41
101296.59
101296.59
101296.58
101296.58
101294.91
101294.91
101294.91
101294.91
101294.73
101292.94
101293.12
101293.12
101293.12
101293.12
101291.2
101291.2
101291.2
101291.2
101291.02
101288.96
101289.15
101289.15
101289.15
101289.15
101286.94
101286.94
101286.94
101286.93
101286.75
101284.36
101284.55
101284.56
101284.56
101284.56
101281.98
101281.98
101281.98
101281.97
101281.79
101278.98
101279.15
101279.15
101279.16
101279.16
101276.06
101276.06
101276.05
101276.05
101275.9
101272.52
101272.62
101272.63
101272.64
101272.64
101268.83
101268.82
101268.81
101268.81
101268.77
101264.58
101264.52
101264.53
101264.54
101264.54
101259.7
101259.7
101259.69
101259.68
101259.88
101254.52
101254.15
101254.15
101254.16
101254.17
101247.82
101247.82
101247.81
101247.81
101248.4
101241.38
101240.55
101240.53
101240.54
101240.53
101232.12
101232.14
101232.14
101232.17
101233.26
101223.83
101222.47
101222.42
101222.4
101222.37
101211
101211.05
101211.09
101211.17
101212.81
101199.84
101197.91
101197.78
101197.71
101197.64
101181.77
101181.87
101181.99
101182.17
101184.42
101165.8
101163.22
101162.97
101162.78
101162.64
101139.72
101139.92
101140.19
101140.54
101143.43
101116.15
101113.23
101112.76
101112.38
101112.11
101074.14
101074.49
101075.01
101075.6
101077.86
101031.88
101029.98
101029.21
101028.51
101028.06
101003.8
101004.42
101005.69
101007.25
101014.93
100951.38
100944.51
100942.94
100941.96
100941.3
100565.38
100571.97
100573.26
100577.88
100635.9
100609.41
100205.3
100161.84
100122.43
100072.33
101678.26
101660.76
101644.97
101624.52
101398.17
101083.25
100942.17
100924.24
100911.62
100886.62
101437.19
101469.33
101492.36
101512.64
101507.91
101220.43
101269.79
101274.29
101278.13
101275.33
101554.7
101542.62
101529.99
101512.99
101362.38
100597.24
100264.95
100221.22
100179.17
100128.39
100501.28
100511.12
100514.19
100520.83
100596.91
100933.97
100926.66
100925.02
100924.32
100923.31
100998.71
100999.27
101000.47
101002
101008.5
101028.58
101026.32
101025.51
101024.77
101024.27
101071.89
101072.32
101072.88
101073.5
101075.76
101114.42
101111.84
101111.34
101110.92
101110.6
101138.67
101138.91
101139.22
101139.6
101142.06
101164.79
101162.63
101162.34
101162.13
101161.95
101181.32
101181.45
101181.6
101181.81
101183.7
101199.33
101197.68
101197.53
101197.43
101197.35
101210.81
101210.87
101210.93
101211.03
101212.44
101223.58
101222.4
101222.34
101222.31
101222.28
101232.08
101232.1
101232.11
101232.14
101233.1
101241.27
101240.53
101240.52
101240.53
101240.52
101247.83
101247.83
101247.81
101247.82
101248.35
101254.5
101254.16
101254.16
101254.18
101254.18
101259.73
101259.73
101259.71
101259.71
101259.88
101264.61
101264.54
101264.55
101264.56
101264.57
101268.83
101268.82
101268.82
101268.81
101268.8
101272.55
101272.62
101272.63
101272.63
101272.63
101276.05
101276.05
101276.05
101276.04
101275.93
101279
101279.14
101279.14
101279.14
101279.14
101281.96
101281.96
101281.96
101281.95
101281.81
101284.38
101284.54
101284.54
101284.54
101284.54
101286.91
101286.91
101286.91
101286.91
101286.76
101288.97
101289.12
101289.12
101289.12
101289.12
101291.17
101291.18
101291.18
101291.18
101291.03
101292.95
101293.09
101293.09
101293.09
101293.09
101294.88
101294.88
101294.88
101294.88
101294.74
101296.42
101296.55
101296.55
101296.55
101296.54
101298.12
101298.12
101298.13
101298.13
101298
101299.51
101299.6
101299.6
101299.59
101299.59
101299.58
101299.58
101299.58
101299.58
101299.47
101297.97
101298.12
101298.12
101298.11
101298.11
101296.53
101296.54
101296.54
101296.54
101296.39
101294.71
101294.87
101294.87
101294.87
101294.87
101293.08
101293.08
101293.08
101293.08
101292.92
101291.01
101291.17
101291.17
101291.17
101291.17
101289.12
101289.12
101289.12
101289.12
101288.96
101286.74
101286.91
101286.91
101286.91
101286.91
101284.54
101284.54
101284.54
101284.54
101284.37
101281.8
101281.96
101281.97
101281.97
101281.97
101279.15
101279.15
101279.15
101279.14
101278.99
101275.92
101276.05
101276.05
101276.06
101276.06
101272.64
101272.64
101272.63
101272.63
101272.54
101268.79
101268.82
101268.83
101268.84
101268.84
101264.58
101264.58
101264.57
101264.56
101264.6
101259.89
101259.72
101259.73
101259.75
101259.75
101254.23
101254.23
101254.21
101254.21
101254.52
101248.38
101247.87
101247.87
101247.89
101247.89
101240.59
101240.59
101240.59
101240.6
101241.32
101233.16
101232.2
101232.16
101232.16
101232.14
101222.33
101222.37
101222.39
101222.45
101223.66
101212.56
101211.07
101210.97
101210.92
101210.86
101197.35
101197.44
101197.53
101197.68
101199.47
101183.85
101181.73
101181.52
101181.36
101181.23
101161.8
101161.98
101162.21
101162.51
101165
101142.5
101139.6
101139.2
101138.88
101138.65
101110.71
101111.03
101111.46
101111.98
101115.02
101076.44
101073.76
101073.11
101072.53
101072.1
101027.04
101027.51
101028.33
101029.25
101033.06
101019.48
101010.29
101008.56
101007.26
101006.88
100924.63
100924.85
100924.43
100924.9
100925.24
100561.54
100416.65
100401.25
100389.71
100371.61
100533.85
100562.67
100583.84
100606.85
100787.25
101229.89
101334.58
101339.72
101342.54
101340.88
100972.86
100991.95
101000.94
101011.32
101097.27
101586.1
101574.8
101554.81
101531.53
101501.95
101860.35
102008.88
102029.35
102043.8
102047.75
102138.9
102132.01
102124.57
102105.29
101810.34
101643.48
101676.31
101668.65
101659.85
101637.68
101525.65
101533.89
101537.38
101538.26
101476.88
101304.2
101386.72
101395.1
101400.51
101405.82
101184.84
101195.39
101204.35
101209.36
101210.05
100649.74
100435.61
100407.51
100382.56
100344.57
100502
100511.61
100516.11
100524.62
100609.21
100933.47
100928.22
100926.6
100925.48
100924.31
101002.7
101003.48
101004.81
101006.43
101011.47
101030.11
101028.49
101027.6
101026.76
101026.2
101072.57
101073.03
101073.65
101074.31
101076.16
101114.65
101112.25
101111.72
101111.26
101110.91
101138.79
101139.05
101139.38
101139.78
101142.19
101164.82
101162.64
101162.35
101162.11
101161.93
101181.26
101181.39
101181.55
101181.77
101183.7
101199.32
101197.63
101197.48
101197.37
101197.28
101210.77
101210.83
101210.89
101210.99
101212.44
101223.57
101222.36
101222.29
101222.27
101222.23
101232.04
101232.06
101232.07
101232.1
101233.08
101241.27
101240.52
101240.5
101240.51
101240.5
101247.81
101247.81
101247.8
101247.8
101248.34
101254.5
101254.16
101254.16
101254.18
101254.18
101259.71
101259.71
101259.7
101259.69
101259.88
101264.6
101264.53
101264.54
101264.55
101264.55
101268.82
101268.82
101268.81
101268.81
101268.79
101272.54
101272.62
101272.62
101272.63
101272.63
101276.04
101276.04
101276.04
101276.04
101275.93
101279
101279.13
101279.14
101279.14
101279.14
101281.96
101281.96
101281.96
101281.96
101281.81
101284.38
101284.53
101284.53
101284.53
101284.53
101286.91
101286.91
101286.91
101286.91
101286.76
101288.97
101289.12
101289.12
101289.12
101289.12
101291.17
101291.18
101291.18
101291.18
101291.03
101292.95
101293.09
101293.1
101293.09
101293.09
101294.88
101294.89
101294.89
101294.89
101294.74
101296.42
101296.57
101296.57
101296.56
101296.56
101298.14
101298.14
101298.15
101298.15
101298.01
101299.52
101299.62
101299.62
101299.62
101299.61
101299.61
101299.61
101299.62
101299.62
101299.49
101297.99
101298.16
101298.16
101298.16
101298.15
101296.57
101296.58
101296.58
101296.58
101296.41
101294.73
101294.9
101294.9
101294.9
101294.9
101293.11
101293.11
101293.11
101293.11
101292.93
101291.01
101291.19
101291.19
101291.19
101291.19
101289.13
101289.13
101289.14
101289.13
101288.95
101286.74
101286.92
101286.93
101286.92
101286.92
101284.54
101284.54
101284.54
101284.54
101284.35
101281.77
101281.95
101281.96
101281.96
101281.96
101279.13
101279.13
101279.13
101279.13
101278.96
101275.88
101276.02
101276.03
101276.03
101276.03
101272.62
101272.61
101272.61
101272.6
101272.5
101268.75
101268.78
101268.79
101268.8
101268.8
101264.52
101264.52
101264.5
101264.5
101264.57
101259.87
101259.67
101259.67
101259.69
101259.69
101254.13
101254.13
101254.12
101254.11
101254.51
101248.38
101247.77
101247.77
101247.78
101247.78
101240.49
101240.5
101240.49
101240.5
101241.36
101233.25
101232.11
101232.08
101232.08
101232.07
101222.31
101222.34
101222.36
101222.41
101223.83
101212.83
101211.13
101211.04
101210.99
101210.94
101197.61
101197.69
101197.77
101197.91
101199.89
101184.5
101182.22
101182.02
101181.88
101181.77
101162.7
101162.85
101163.06
101163.34
101165.93
101143.68
101140.85
101140.46
101140.16
101139.94
101112.34
101112.65
101113.09
101113.61
101116.29
101077.54
101075.85
101075.2
101074.6
101074.18
101029.86
101030.4
101031.25
101032.16
101033.43
101018.91
101012.68
101010.87
101009.39
101008.65
100932.87
100933.47
100934.09
100935.75
100938.77
100630.15
100534.48
100526.44
100521.26
100511.58
100422.88
100455.16
100478.52
100505.43
100746.45
101100.54
101124.14
101122.83
101121.61
101112.49
100855.5
100886.47
100914.57
100941.95
101164.96
101612.53
101970.35
102011.3
102046.72
102081.86
101069.46
101092.26
101109.7
101124.45
101207.48
100971.31
100897.94
100885.41
100876.01
100852.71
100915.63
100918.68
100919.33
100919.92
100913.34
100554.19
100343.7
100318.87
100297.47
100269.7
100916.65
100917.31
100917.41
100918.34
100919.43
101021.98
101014.81
101012.9
101011.35
101010.82
101027.66
101028.27
101029.2
101030.26
101033.68
101076.22
101073.82
101073.1
101072.44
101071.96
101110.74
101111.11
101111.6
101112.18
101115.03
101142.53
101139.77
101139.33
101138.97
101138.7
101161.8
101161.99
101162.25
101162.57
101164.99
101183.84
101181.76
101181.53
101181.36
101181.21
101197.27
101197.36
101197.47
101197.62
101199.42
101212.49
101210.97
101210.87
101210.81
101210.75
101222.22
101222.26
101222.28
101222.34
101223.6
101233.1
101232.1
101232.07
101232.07
101232.05
101240.51
101240.51
101240.5
101240.52
101241.27
101248.33
101247.8
101247.8
101247.82
101247.82
101254.17
101254.17
101254.15
101254.15
101254.48
101259.86
101259.68
101259.69
101259.7
101259.71
101264.54
101264.53
101264.52
101264.51
101264.56
101268.76
101268.79
101268.8
101268.81
101268.81
101272.61
101272.61
101272.6
101272.59
101272.51
101275.89
101276.01
101276.02
101276.03
101276.03
101279.12
101279.12
101279.12
101279.11
101278.97
101281.78
101281.93
101281.94
101281.94
101281.94
101284.52
101284.52
101284.52
101284.52
101284.36
101286.74
101286.89
101286.9
101286.9
101286.9
101289.11
101289.11
101289.11
101289.11
101288.95
101291.01
101291.16
101291.16
101291.16
101291.16
101293.07
101293.08
101293.08
101293.08
101292.92
101294.72
101294.87
101294.87
101294.87
101294.87
101296.55
101296.55
101296.55
101296.55
101296.4
101297.99
101298.13
101298.13
101298.13
101298.13
101299.58
101299.58
101299.58
101299.58
101299.47
101299.48
101299.58
101299.58
101299.58
101299.57
101298.12
101298.12
101298.12
101298.12
101297.98
101296.4
101296.55
101296.55
101296.55
101296.54
101294.87
101294.88
101294.88
101294.88
101294.72
101292.93
101293.09
101293.09
101293.09
101293.09
101291.17
101291.18
101291.18
101291.18
101291.01
101288.96
101289.12
101289.12
101289.12
101289.12
101286.92
101286.92
101286.92
101286.92
101286.75
101284.37
101284.53
101284.54
101284.54
101284.54
101281.96
101281.96
101281.96
101281.95
101281.79
101278.99
101279.14
101279.15
101279.15
101279.15
101276.06
101276.06
101276.05
101276.04
101275.91
101272.53
101272.62
101272.63
101272.64
101272.64
101268.84
101268.84
101268.83
101268.82
101268.78
101264.58
101264.54
101264.54
101264.56
101264.56
101259.75
101259.74
101259.73
101259.72
101259.87
101254.5
101254.18
101254.19
101254.2
101254.2
101247.87
101247.87
101247.86
101247.86
101248.36
101241.31
101240.59
101240.58
101240.58
101240.58
101232.14
101232.16
101232.17
101232.2
101233.15
101223.66
101222.46
101222.4
101222.38
101222.34
101210.89
101210.95
101211
101211.1
101212.55
101199.48
101197.75
101197.6
101197.5
101197.41
101181.35
101181.48
101181.64
101181.86
101183.88
101165.05
101162.66
101162.35
101162.12
101161.94
101138.72
101138.97
101139.3
101139.71
101142.53
101115.12
101112.03
101111.48
101111.02
101110.68
101072.13
101072.59
101073.19
101073.89
101076.77
101031.99
101028.39
101027.43
101026.58
101026.07
101003.72
101004.23
101005.63
101007.47
101016.74
100936.07
100936.18
100935.71
100936.2
100936.11
100433.26
100447.39
100455.13
100466.05
100576.08
100671.29
100405.71
100371.43
100341.61
100301.8
101603.44
101591.53
101578.98
101561.98
101379.16
101018.54
100898.3
100884.85
100876.41
100856.31
101236.05
101147.71
101219.25
101137.29
100960.59
100939.17
100919.63
100891.87
101397.14
101393.84
101390.23
101384.27
101327.53
101734.95
101744.59
101749.53
101747.35
101725.51
101474.71
101543.55
101540.2
101534.09
101512.11
101090.11
101124.01
101140.21
101158.68
101249.18
101475.74
101520.08
101523.39
101522.67
101520.2
101502.28
101788.23
101454.48
101533.35
101310.54
101312.84
101306.04
101310.52
101307.43
101305.67
101306.96
101307.34
101299.49
101299.49
101299.5
101299.5
101299.42
101297.93
101298.05
101298.05
101298.04
101298.04
101296.48
101296.48
101296.48
101296.49
101296.36
101294.69
101294.83
101294.83
101294.82
101294.82
101293.04
101293.05
101293.05
101293.05
101292.91
101291
101291.14
101291.14
101291.14
101291.14
101289.09
101289.1
101289.1
101289.1
101288.95
101286.74
101286.89
101286.89
101286.89
101286.88
101284.51
101284.51
101284.52
101284.51
101284.36
101281.8
101281.95
101281.95
101281.95
101281.95
101279.14
101279.14
101279.14
101279.13
101279
101275.93
101276.04
101276.05
101276.05
101276.05
101272.65
101272.65
101272.64
101272.63
101272.56
101268.81
101268.84
101268.85
101268.85
101268.86
101264.6
101264.6
101264.58
101264.58
101264.63
101259.92
101259.76
101259.76
101259.78
101259.78
101254.25
101254.25
101254.23
101254.23
101254.56
101248.41
101247.88
101247.88
101247.9
101247.9
101240.59
101240.6
101240.59
101240.6
101241.35
101233.16
101232.19
101232.16
101232.15
101232.13
101222.31
101222.34
101222.37
101222.43
101223.64
101212.5
101211.05
101210.95
101210.89
101210.83
101197.34
101197.44
101197.54
101197.7
101199.38
101183.74
101181.82
101181.6
101181.43
101181.3
101161.95
101162.14
101162.38
101162.69
101164.86
101142.33
101139.9
101139.49
101139.15
101138.89
101110.79
101111.14
101111.6
101112.15
101114.54
101075.09
101073.23
101072.57
101071.96
101071.51
101028.04
101028.57
101029.42
101030.34
101032.42
101020.13
101016
101014.3
101012.89
101012.19
100898.74
100899.9
100900.87
100902.44
100905.12
100561.98
100385.77
100367.13
100352.16
100331.75
100902.07
100910.25
100911.15
100913.4
100917.14
100889.92
100737.34
100717.44
100700.37
100668.05
101278.07
101284.97
101296.08
101302.81
101334.07
101572.29
101575.06
101579.81
101568.07
101398.57
101420.91
101420.18
101425.53
101374.37
101390.46
101437.36
101425.81
101417.89
101391.13
102364.64
102322.24
102285.8
102239.19
101877.67
101787.11
102035.78
102057.05
102072.57
102088.63
101277.91
101284.84
101295.95
101302.69
101334.14
100890.04
100737.4
100717.51
100700.45
100668.15
100902.31
100910.48
100911.38
100913.61
100917.35
100562.14
100385.95
100367.33
100352.39
100331.98
100898.7
100899.85
100900.84
100902.43
100905.29
101020.2
101016.23
101014.56
101013.16
101012.47
101028.11
101028.64
101029.48
101030.4
101032.46
101075.1
101073.26
101072.6
101071.99
101071.55
101110.79
101111.14
101111.61
101112.15
101114.52
101142.28
101139.89
101139.47
101139.14
101138.88
101161.9
101162.09
101162.33
101162.64
101164.79
101183.65
101181.75
101181.52
101181.36
101181.22
101197.24
101197.33
101197.44
101197.6
101199.26
101212.37
101210.93
101210.82
101210.76
101210.7
101222.17
101222.2
101222.23
101222.3
101223.51
101233.03
101232.05
101232.02
101232.01
101231.99
101240.45
101240.45
101240.45
101240.47
101241.22
101248.3
101247.76
101247.75
101247.76
101247.76
101254.13
101254.13
101254.11
101254.11
101254.46
101259.84
101259.65
101259.65
101259.66
101259.67
101264.52
101264.52
101264.51
101264.5
101264.58
101268.76
101268.77
101268.77
101268.78
101268.78
101272.59
101272.59
101272.59
101272.58
101272.52
101275.9
101276
101276.01
101276.01
101276.01
101279.11
101279.11
101279.11
101279.1
101278.97
101281.78
101281.91
101281.92
101281.92
101281.92
101284.49
101284.49
101284.5
101284.49
101284.35
101286.73
101286.87
101286.87
101286.87
101286.87
101289.08
101289.08
101289.09
101289.09
101288.94
101291
101291.14
101291.14
101291.14
101291.13
101293.05
101293.05
101293.05
101293.05
101292.91
101294.7
101294.84
101294.84
101294.84
101294.83
101296.51
101296.51
101296.52
101296.52
101296.38
101297.96
101298.09
101298.09
101298.09
101298.08
101299.58
101299.59
101299.59
101299.59
101299.46
101300.88
101301.01
101301.01
101301.01
101301.01
101299.37
101299.48
101299.48
101299.48
101299.47
101298.03
101298.03
101298.04
101298.04
101297.9
101296.33
101296.47
101296.47
101296.47
101296.47
101294.8
101294.81
101294.81
101294.81
101294.66
101292.87
101293.03
101293.03
101293.03
101293.02
101291.12
101291.12
101291.12
101291.12
101290.96
101288.91
101289.07
101289.08
101289.07
101289.07
101286.87
101286.87
101286.87
101286.87
101286.71
101284.33
101284.5
101284.5
101284.5
101284.5
101281.92
101281.92
101281.92
101281.92
101281.76
101278.96
101279.11
101279.12
101279.12
101279.12
101276.04
101276.04
101276.03
101276.02
101275.89
101272.52
101272.62
101272.63
101272.63
101272.64
101268.85
101268.84
101268.83
101268.82
101268.77
101264.59
101264.57
101264.58
101264.59
101264.59
101259.77
101259.77
101259.75
101259.74
101259.89
101254.55
101254.25
101254.25
101254.27
101254.28
101247.92
101247.92
101247.9
101247.9
101248.41
101241.37
101240.62
101240.61
101240.62
101240.62
101232.17
101232.19
101232.18
101232.21
101233.2
101223.71
101222.45
101222.4
101222.38
101222.34
101210.86
101210.92
101210.97
101211.07
101212.6
101199.52
101197.71
101197.55
101197.45
101197.36
101181.28
101181.42
101181.59
101181.82
101183.91
101165.04
101162.6
101162.28
101162.02
101161.83
101138.68
101138.95
101139.31
101139.75
101142.55
101115
101112.1
101111.52
101111.03
101110.66
101071.82
101072.31
101072.96
101073.68
101076.14
101033.54
101030.05
101029
101028.06
101027.45
101010.57
101011.08
101012.64
101014.55
101021.77
100919.09
100917.91
100916.97
100916.89
100916.22
100269.27
100297.05
100318.47
100343.31
100553.8
100912.83
100919.31
100918.7
100918.04
100914.98
100852.16
100875.46
100884.86
100897.4
100970.74
101206.84
101124.09
101109.38
101092
101069.29
102080.24
102045.18
102009.85
101968.91
101611.14
101164.22
100941.29
100913.95
100885.88
100854.98
101399.93
101394.94
101389.83
101381.77
101302.05
101219.83
101267.69
101271.93
101275.47
101272.56
100886.57
100911.6
100924.29
100942.28
101083.81
101017.92
100897.18
100883.72
100875.25
100855.08
100973.09
100992.2
101001.2
101011.6
101097.77
101137.58
100960.61
100939.16
100919.59
100891.81
101397.69
101394.37
101390.76
101384.78
101327.84
100912.25
100770.08
100747.87
100725.82
100693.06
100887.28
100894.82
100897.04
100900.65
100919.13
100551.91
100373.52
100354.87
100340.17
100318.28
100902.19
100903.47
100904.75
100906.19
100906.39
101020.67
101016.86
101015.11
101013.63
101012.98
101027.87
101028.41
101029.29
101030.24
101032.08
101075.18
101073.59
101072.92
101072.3
101071.85
101111.12
101111.47
101111.94
101112.48
101114.67
101142.33
101140.07
101139.66
101139.32
101139.06
101162.02
101162.21
101162.45
101162.75
101164.81
101183.66
101181.81
101181.59
101181.43
101181.29
101197.29
101197.38
101197.48
101197.64
101199.27
101212.37
101210.96
101210.86
101210.79
101210.73
101222.18
101222.22
101222.25
101222.31
101223.5
101233.03
101232.06
101232.03
101232.02
101232
101240.45
101240.46
101240.45
101240.47
101241.22
101248.3
101247.76
101247.75
101247.76
101247.76
101254.13
101254.12
101254.11
101254.11
101254.45
101259.84
101259.65
101259.66
101259.67
101259.67
101264.52
101264.51
101264.5
101264.5
101264.58
101268.76
101268.76
101268.77
101268.78
101268.78
101272.59
101272.59
101272.58
101272.58
101272.51
101275.89
101275.99
101276
101276
101276
101279.09
101279.09
101279.09
101279.09
101278.96
101281.77
101281.91
101281.91
101281.91
101281.91
101284.49
101284.49
101284.49
101284.49
101284.34
101286.73
101286.87
101286.87
101286.87
101286.87
101289.07
101289.07
101289.08
101289.08
101288.93
101290.99
101291.13
101291.13
101291.13
101291.13
101293.04
101293.04
101293.05
101293.04
101292.9
101294.7
101294.84
101294.84
101294.83
101294.83
101296.51
101296.52
101296.52
101296.52
101296.38
101297.96
101298.09
101298.09
101298.09
101298.09
101299.58
101299.58
101299.58
101299.59
101299.45
101300.83
101300.93
101300.93
101300.92
101300.92
101299.46
101299.55
101299.55
101299.54
101299.54
101298.08
101298.08
101298.09
101298.09
101297.96
101296.38
101296.51
101296.51
101296.51
101296.51
101294.84
101294.85
101294.85
101294.85
101294.71
101292.92
101293.06
101293.07
101293.06
101293.06
101291.15
101291.16
101291.16
101291.16
101291.01
101288.96
101289.1
101289.11
101289.1
101289.1
101286.9
101286.9
101286.91
101286.9
101286.75
101284.37
101284.53
101284.53
101284.53
101284.53
101281.95
101281.95
101281.95
101281.95
101281.8
101279
101279.14
101279.14
101279.14
101279.14
101276.06
101276.06
101276.06
101276.05
101275.94
101272.56
101272.64
101272.65
101272.65
101272.65
101268.85
101268.85
101268.84
101268.83
101268.81
101264.63
101264.57
101264.58
101264.59
101264.59
101259.76
101259.76
101259.74
101259.74
101259.92
101254.54
101254.22
101254.22
101254.24
101254.24
101247.89
101247.89
101247.88
101247.88
101248.4
101241.34
101240.6
101240.58
101240.59
101240.59
101232.13
101232.15
101232.16
101232.19
101233.16
101223.63
101222.43
101222.37
101222.35
101222.31
101210.83
101210.89
101210.95
101211.05
101212.48
101199.36
101197.71
101197.56
101197.46
101197.36
101181.36
101181.49
101181.65
101181.87
101183.74
101164.88
101162.78
101162.48
101162.24
101162.05
101139.07
101139.32
101139.66
101140.07
101142.37
101114.68
101112.46
101111.92
101111.45
101111.1
101071.79
101072.24
101072.87
101073.53
101075.17
101032.02
101030.14
101029.19
101028.3
101027.76
101012.66
101013.31
101014.79
101016.56
101020.57
100906.23
100906.25
100904.81
100903.55
100902.27
100318.11
100340.02
100354.73
100373.38
100551.72
100918.98
100900.52
100896.91
100894.68
100887.14
100693.07
100725.81
100747.85
100770.05
100912.13
101035.01
100959.52
100950.05
100940.57
100923.92
100678.9
100698.88
100710.98
100725.56
100842.09
100607.33
100463.63
100450.58
100441.16
100426.54
100917.27
100917.9
100918.84
100920.46
100927.76
101022.12
101016.13
101014.52
101013.19
101012.66
101029.68
101030.12
101030.89
101031.72
101033.45
101076.61
101074.78
101074.19
101073.64
101073.26
101112.12
101112.41
101112.81
101113.3
101116
101143.59
101140.77
101140.4
101140.13
101139.92
101162.72
101162.87
101163.06
101163.33
101165.88
101184.5
101182.26
101182.07
101181.94
101181.84
101197.68
101197.76
101197.83
101197.97
101199.91
101212.85
101211.21
101211.12
101211.08
101211.03
101222.41
101222.44
101222.46
101222.51
101223.88
101233.31
101232.22
101232.19
101232.19
101232.18
101240.59
101240.59
101240.58
101240.59
101241.42
101248.44
101247.85
101247.85
101247.86
101247.86
101254.2
101254.2
101254.18
101254.18
101254.55
101259.9
101259.71
101259.72
101259.73
101259.74
101264.56
101264.55
101264.54
101264.53
101264.59
101268.77
101268.82
101268.82
101268.83
101268.83
101272.64
101272.64
101272.63
101272.62
101272.52
101275.9
101276.04
101276.05
101276.05
101276.05
101279.15
101279.15
101279.15
101279.14
101278.97
101281.78
101281.97
101281.97
101281.97
101281.97
101284.55
101284.55
101284.55
101284.54
101284.36
101286.73
101286.92
101286.93
101286.93
101286.92
101289.13
101289.13
101289.14
101289.13
101288.95
101291
101291.19
101291.19
101291.19
101291.19
101293.09
101293.1
101293.1
101293.1
101292.92
101294.71
101294.88
101294.88
101294.88
101294.88
101296.54
101296.54
101296.54
101296.54
101296.38
101297.96
101298.12
101298.12
101298.11
101298.11
101299.56
101299.56
101299.57
101299.57
101299.46
101299.41
101299.52
101299.52
101299.52
101299.52
101298.07
101298.07
101298.08
101298.08
101297.92
101296.34
101296.51
101296.51
101296.51
101296.5
101294.85
101294.85
101294.85
101294.85
101294.68
101292.89
101293.07
101293.07
101293.07
101293.06
101291.16
101291.16
101291.16
101291.16
101290.98
101288.92
101289.11
101289.11
101289.11
101289.11
101286.9
101286.9
101286.9
101286.9
101286.71
101284.34
101284.52
101284.53
101284.53
101284.53
101281.95
101281.95
101281.95
101281.95
101281.76
101278.96
101279.13
101279.14
101279.14
101279.14
101276.05
101276.05
101276.04
101276.04
101275.89
101272.51
101272.63
101272.63
101272.64
101272.64
101268.84
101268.84
101268.83
101268.82
101268.78
101264.6
101264.55
101264.56
101264.57
101264.57
101259.75
101259.74
101259.73
101259.72
101259.91
101254.57
101254.21
101254.21
101254.23
101254.23
101247.88
101247.88
101247.86
101247.86
101248.46
101241.45
101240.6
101240.58
101240.59
101240.59
101232.17
101232.19
101232.19
101232.22
101233.34
101223.91
101222.5
101222.45
101222.43
101222.4
101211.01
101211.06
101211.1
101211.19
101212.89
101199.93
101197.94
101197.8
101197.72
101197.64
101181.76
101181.87
101182.01
101182.2
101184.5
101165.9
101163.28
101163
101162.8
101162.65
101139.85
101140.06
101140.35
101140.73
101143.63
101116
101113.19
101112.69
101112.28
101111.98
101073.14
101073.53
101074.08
101074.7
101076.84
101034.48
101032.06
101031.2
101030.43
101029.91
101010.24
101010.96
101012.31
101013.97
101021.77
100927.04
100920.25
100919.08
100918.43
100918.03
100493.35
100501.83
100505.81
100513.76
100615.94
100797.09
100574.04
100546.77
100520.68
100486.63
101023.89
101029.17
101029.53
101029.65
101040.69
101130.48
100940.37
100919.52
100903.17
100876.1
101485.84
101512.86
101534.66
101553.22
101559.15
101192.46
101152.71