/*--------------------------------*- C++ -*----------------------------------*\
  =========                 |
  \\      /  F ield         | OpenFOAM: The Open Source CFD Toolbox
   \\    /   O peration     | Website:  https://openfoam.org
    \\  /    A nd           | Version:  7
     \\/     M anipulation  |
\*---------------------------------------------------------------------------*/
FoamFile
{
    version     2.0;
    format      ascii;
    class       volScalarField;
    location    "200";
    object      rho;
}
// * * * * * * * * * * * * * * * * * * * * * * * * * * * * * * * * * * * * * //

dimensions      [1 -3 0 0 0 0 0];

internalField   nonuniform List<scalar> 
24789
(
1.1737932
1.1737909
1.1737901
1.1737908
1.1737944
1.1737916
1.1737891
1.1737885
1.1737893
1.1737917
1.1737889
1.1737864
1.1737855
1.173786
1.1737878
1.173783
1.1737818
1.1737815
1.1737824
1.1737849
1.1737797
1.1737773
1.1737763
1.1737765
1.1737771
1.1737697
1.1737696
1.1737694
1.1737704
1.1737728
1.1737641
1.173762
1.173761
1.1737611
1.1737607
1.1737499
1.1737504
1.1737504
1.1737512
1.1737532
1.1737399
1.1737383
1.1737375
1.1737376
1.1737368
1.1737212
1.1737218
1.1737217
1.1737222
1.1737234
1.1737037
1.173703
1.1737028
1.173703
1.1737028
1.1736811
1.1736804
1.17368
1.1736799
1.1736798
1.1736513
1.1736523
1.1736529
1.1736535
1.1736555
1.1736255
1.1736215
1.1736205
1.1736192
1.1736171
1.1735763
1.1735798
1.1735819
1.1735835
1.1735903
1.1735492
1.1735382
1.1735358
1.1735325
1.1735272
1.1734684
1.1734762
1.1734811
1.1734845
1.1735013
1.1734452
1.1734198
1.1734148
1.1734077
1.1733966
1.1733098
1.1733255
1.1733355
1.1733427
1.17338
1.1733041
1.17325
1.1732396
1.1732256
1.1732038
1.1730748
1.1731047
1.173124
1.1731386
1.1732156
1.1731128
1.1730049
1.1729846
1.1729581
1.1729178
1.1727282
1.1727818
1.1728174
1.1728453
1.1729937
1.1728559
1.1726555
1.1726179
1.1725706
1.1725006
1.1722302
1.1723198
1.1723812
1.1724309
1.1726956
1.1725074
1.1721657
1.1721016
1.1720235
1.1719114
1.1715455
1.1716824
1.1717791
1.1718599
1.172289
1.1720356
1.1715156
1.1714171
1.1713003
1.171137
1.1706564
1.1708429
1.1709783
1.171094
1.1716976
1.1713399
1.1706503
1.170519
1.1703726
1.1701847
1.1701219
1.1702668
1.1704138
1.1705607
1.1713441
1.1706119
1.1699582
1.1698282
1.1697059
1.169621
1.1642591
1.1646156
1.1648917
1.1651719
1.1673597
1.1718223
1.1715639
1.1714104
1.1712541
1.171022
1.1728559
1.1730842
1.1732081
1.1733398
1.1739445
1.1757564
1.175344
1.1752267
1.1750916
1.1748748
1.1788003
1.1791565
1.1794042
1.1795939
1.1796731
1.1750769
1.1728457
1.1725981
1.1723829
1.1719907
1.1734441
1.1735954
1.1736555
1.173696
1.174041
1.1708045
1.1686256
1.1682633
1.167904
1.1674255
1.1658617
1.1660921
1.1662608
1.1664401
1.1680105
1.17071
1.1698823
1.1697514
1.1696274
1.1695284
1.1700246
1.1701711
1.1703151
1.1704572
1.171345
1.1713628
1.1705809
1.1704526
1.1703105
1.1701314
1.1706089
1.1707841
1.1709158
1.17103
1.1717234
1.1720601
1.1714539
1.1713556
1.1712404
1.1710831
1.1714851
1.1716205
1.1717178
1.1717996
1.1723078
1.1725218
1.172109
1.1720427
1.1719626
1.1718491
1.1721702
1.172263
1.1723274
1.1723798
1.1727058
1.1728642
1.1726121
1.1725715
1.1725207
1.1724465
1.1726817
1.1727399
1.1727791
1.1728098
1.173
1.173118
1.1729773
1.1729545
1.1729248
1.17288
1.1730452
1.173079
1.1731011
1.1731177
1.1732193
1.173307
1.1732348
1.1732229
1.1732068
1.1731819
1.1732938
1.173312
1.1733236
1.173332
1.173382
1.1734468
1.1734127
1.1734069
1.1733987
1.1733858
1.1734608
1.1734699
1.1734756
1.1734796
1.1735022
1.1735498
1.173535
1.1735323
1.1735285
1.1735224
1.1735731
1.1735772
1.1735797
1.1735815
1.1735905
1.1736255
1.1736203
1.1736192
1.1736177
1.1736154
1.17365
1.1736512
1.173652
1.1736527
1.1736551
1.1736805
1.1736798
1.1736794
1.1736793
1.1736792
1.1737029
1.1737024
1.1737022
1.1737024
1.173702
1.1737203
1.1737213
1.1737212
1.1737218
1.173723
1.1737391
1.1737375
1.1737368
1.1737369
1.1737357
1.1737487
1.1737497
1.1737497
1.1737507
1.1737527
1.1737632
1.173761
1.1737601
1.1737602
1.1737594
1.1737683
1.1737687
1.1737686
1.1737696
1.173772
1.1737784
1.1737761
1.1737751
1.1737754
1.1737756
1.1737816
1.1737806
1.1737803
1.1737813
1.1737838
1.1737872
1.1737849
1.173784
1.1737845
1.1737863
1.1737902
1.1737877
1.1737872
1.173788
1.1737904
1.1737915
1.1737892
1.1737885
1.1737891
1.1737931
1.1737927
1.1737908
1.1737904
1.1737915
1.1737941
1.1737925
1.1737898
1.1737887
1.1737889
1.1737894
1.1737847
1.1737849
1.1737847
1.1737859
1.1737886
1.1737839
1.1737813
1.17378
1.1737801
1.173779
1.1737719
1.1737735
1.1737736
1.1737748
1.1737774
1.1737692
1.1737668
1.1737656
1.1737654
1.1737631
1.1737525
1.1737552
1.1737554
1.1737566
1.1737588
1.1737459
1.173744
1.173743
1.1737428
1.1737398
1.1737247
1.1737276
1.1737277
1.1737286
1.1737302
1.1737109
1.1737099
1.1737093
1.1737092
1.1737067
1.1736855
1.1736871
1.173687
1.1736873
1.1736876
1.1736594
1.17366
1.1736603
1.1736606
1.1736605
1.1736313
1.1736289
1.1736282
1.1736272
1.1736254
1.1735844
1.1735877
1.1735897
1.173591
1.1735969
1.1735569
1.1735455
1.1735433
1.17354
1.1735346
1.1734742
1.1734825
1.1734875
1.173491
1.17351
1.1734555
1.1734251
1.1734199
1.1734124
1.1734003
1.1733098
1.1733271
1.173338
1.1733457
1.1733916
1.1733178
1.1732499
1.1732387
1.1732233
1.1731992
1.1730647
1.1730974
1.1731186
1.1731345
1.1732314
1.1731316
1.1729962
1.1729742
1.1729455
1.172902
1.1727072
1.1727638
1.1728018
1.1728315
1.1730151
1.1728814
1.1726373
1.172598
1.1725488
1.1724766
1.1722066
1.1722965
1.1723589
1.1724095
1.172725
1.172544
1.1721443
1.1720804
1.1720031
1.1718935
1.1715386
1.1716687
1.1717621
1.1718407
1.1723317
1.1720883
1.1715031
1.1714091
1.1712991
1.1711491
1.1706968
1.1708629
1.1709879
1.1710965
1.1717621
1.1713758
1.1706358
1.1705154
1.1703825
1.1702142
1.1700826
1.1702099
1.170339
1.1704703
1.1713114
1.1709928
1.1701727
1.1700449
1.1699306
1.1698673
1.1668317
1.1670193
1.1671393
1.1672671
1.1683138
1.1689026
1.1649951
1.164488
1.1640124
1.1633679
1.1805401
1.1804728
1.1803607
1.1801793
1.1781106
1.1742818
1.1721659
1.171891
1.171649
1.1712259
1.1784196
1.1788264
1.1790836
1.1792859
1.1790772
1.1757499
1.1755887
1.175523
1.175421
1.1751871
1.1793902
1.1793929
1.1793103
1.1791525
1.1777437
1.1688198
1.1657965
1.165306
1.1648247
1.1642006
1.1662907
1.1664908
1.1666082
1.1667418
1.1678563
1.1707687
1.1700451
1.1699143
1.1697989
1.1697255
1.1700471
1.1701906
1.170331
1.1704687
1.1712156
1.17132
1.1706592
1.1705339
1.1703916
1.1702048
1.1707272
1.170906
1.1710357
1.1711456
1.1717246
1.1720582
1.1715632
1.1714709
1.1713607
1.1712055
1.1716107
1.1717394
1.1718295
1.1719042
1.1723078
1.1725259
1.1722058
1.172147
1.172075
1.1719709
1.1722813
1.1723637
1.1724199
1.1724652
1.1727119
1.172872
1.1726853
1.1726512
1.1726082
1.1725441
1.1727646
1.1728135
1.1728459
1.172871
1.1730083
1.1731267
1.1730276
1.1730095
1.1729856
1.172949
1.1731014
1.1731284
1.1731456
1.1731584
1.1732279
1.1733154
1.1732676
1.1732587
1.1732465
1.173227
1.1733299
1.1733437
1.1733523
1.1733583
1.17339
1.1734545
1.1734339
1.17343
1.1734241
1.1734146
1.173484
1.1734905
1.1734943
1.1734969
1.1735094
1.1735567
1.1735495
1.173548
1.1735456
1.1735416
1.1735887
1.1735912
1.1735925
1.1735935
1.1735968
1.1736313
1.1736305
1.1736301
1.1736296
1.1736286
1.1736612
1.1736613
1.1736613
1.1736615
1.1736606
1.1736857
1.1736876
1.1736876
1.1736881
1.1736889
1.1737114
1.1737101
1.1737094
1.1737092
1.1737068
1.1737249
1.1737275
1.1737277
1.1737288
1.1737307
1.1737459
1.1737438
1.1737427
1.1737425
1.17374
1.1737527
1.1737549
1.1737551
1.1737564
1.1737589
1.173769
1.1737664
1.1737651
1.173765
1.1737633
1.1737719
1.1737731
1.1737732
1.1737745
1.1737773
1.1737834
1.1737807
1.1737795
1.1737796
1.173779
1.1737847
1.1737844
1.1737842
1.1737855
1.1737883
1.1737918
1.1737891
1.173788
1.1737883
1.1737893
1.1737925
1.1737903
1.17379
1.1737912
1.173794
1.1737951
1.1737925
1.1737914
1.1737918
1.173794
1.1737906
1.1737895
1.1737892
1.1737903
1.173793
1.1737889
1.1737863
1.1737852
1.1737854
1.1737859
1.1737802
1.1737803
1.1737802
1.1737813
1.1737839
1.1737773
1.1737748
1.1737736
1.1737737
1.173773
1.1737642
1.1737653
1.1737653
1.1737664
1.1737688
1.1737583
1.1737561
1.173755
1.173755
1.1737535
1.1737406
1.1737421
1.1737422
1.1737431
1.173745
1.1737292
1.1737277
1.1737269
1.1737269
1.1737253
1.173707
1.1737083
1.1737082
1.1737087
1.1737097
1.1736862
1.173686
1.1736859
1.1736861
1.1736855
1.1736602
1.1736596
1.1736591
1.1736587
1.1736582
1.1736245
1.1736262
1.1736272
1.173628
1.1736306
1.1735957
1.1735904
1.1735891
1.1735872
1.1735841
1.1735359
1.1735409
1.1735438
1.1735459
1.1735551
1.1735076
1.1734925
1.1734894
1.1734848
1.1734775
1.1734071
1.1734178
1.1734244
1.1734291
1.1734523
1.1733877
1.1733528
1.1733459
1.1733363
1.1733211
1.1732166
1.1732378
1.1732513
1.1732612
1.1733125
1.1732249
1.1731511
1.1731369
1.1731181
1.1730889
1.1729341
1.1729735
1.1729993
1.1730191
1.1731231
1.1730049
1.1728613
1.1728341
1.1727992
1.1727467
1.1725223
1.1725909
1.1726372
1.1726739
1.1728682
1.1727089
1.1724518
1.1724032
1.1723431
1.1722552
1.1719409
1.1720508
1.1721271
1.1721898
1.1725219
1.1723041
1.171887
1.1718082
1.1717137
1.1715797
1.1711775
1.1713369
1.1714508
1.1715468
1.1720517
1.1717165
1.1711316
1.1710191
1.1708873
1.1707054
1.1702295
1.170412
1.1705544
1.1706816
1.171346
1.1713263
1.1705676
1.1704272
1.1702854
1.1701495
1.1697784
1.1698604
1.169968
1.1700872
1.1707108
1.1675107
1.165733
1.1655105
1.1653033
1.1650121
1.1684025
1.1687902
1.1690587
1.1693386
1.1709074
1.1761864
1.1769734
1.1769728
1.1769311
1.1768144
1.1729648
1.1732397
1.1733839
1.1735243
1.1746142
1.1799564
1.1799416
1.1797482
1.1794908
1.179081
1.1830195
1.1848394
1.1851138
1.1853121
1.1853945
1.1852328
1.1852749
1.1852955
1.1851625
1.1823091
1.1803663
1.1803457
1.1802233
1.1800869
1.179831
1.1781823
1.1783892
1.1785276
1.1786232
1.1785462
1.1766979
1.177057
1.1770644
1.1770162
1.1768961
1.1753715
1.1755974
1.1757377
1.1758152
1.1760032
1.1693111
1.1674487
1.1671071
1.1667877
1.1662877
1.1662356
1.1664238
1.166553
1.1667063
1.1679292
1.1707367
1.1700625
1.1699388
1.1698277
1.1697596
1.1701187
1.1702509
1.1703834
1.1705153
1.1712241
1.171318
1.1706834
1.170563
1.1704282
1.170255
1.1707552
1.1709261
1.1710505
1.1711566
1.1717168
1.1720507
1.1715687
1.171479
1.1713727
1.1712241
1.1716219
1.1717456
1.171833
1.1719058
1.172301
1.1725197
1.172205
1.1721474
1.1720773
1.1719766
1.1722835
1.1723637
1.1724187
1.1724631
1.1727065
1.172867
1.1726824
1.1726487
1.1726064
1.1725437
1.1727631
1.1728111
1.172843
1.1728678
1.1730041
1.1731228
1.1730241
1.173006
1.1729824
1.1729462
1.173098
1.1731248
1.173142
1.1731548
1.1732245
1.1733124
1.1732642
1.1732552
1.1732429
1.1732236
1.1733264
1.1733403
1.1733489
1.1733551
1.1733874
1.1734522
1.173431
1.1734269
1.173421
1.1734114
1.1734807
1.1734873
1.1734913
1.1734941
1.1735074
1.1735548
1.1735469
1.1735452
1.1735427
1.1735384
1.1735861
1.1735887
1.1735902
1.1735913
1.1735952
1.1736299
1.1736285
1.173628
1.1736273
1.1736261
1.173659
1.1736593
1.1736594
1.1736597
1.1736593
1.1736845
1.1736859
1.1736859
1.1736863
1.173687
1.1737098
1.1737086
1.173708
1.1737079
1.1737059
1.1737239
1.1737261
1.1737263
1.1737273
1.1737291
1.1737446
1.1737425
1.1737414
1.1737413
1.1737391
1.1737519
1.1737538
1.173754
1.1737552
1.1737576
1.1737677
1.1737652
1.173764
1.173764
1.1737625
1.1737712
1.1737722
1.1737722
1.1737735
1.1737762
1.1737825
1.1737798
1.1737786
1.1737787
1.1737784
1.1737841
1.1737837
1.1737836
1.1737848
1.1737877
1.1737914
1.1737887
1.1737876
1.1737878
1.1737889
1.1737921
1.17379
1.1737897
1.173791
1.1737939
1.1737914
1.173789
1.1737881
1.1737885
1.173791
1.1737876
1.1737866
1.1737863
1.1737873
1.1737898
1.1737859
1.1737834
1.1737823
1.1737826
1.1737829
1.1737771
1.1737775
1.1737773
1.1737784
1.1737809
1.1737743
1.1737719
1.1737708
1.1737709
1.1737698
1.173761
1.1737625
1.1737625
1.1737635
1.1737658
1.1737552
1.1737532
1.1737522
1.1737522
1.1737502
1.1737374
1.1737393
1.1737393
1.1737402
1.1737419
1.1737257
1.1737245
1.1737238
1.1737238
1.173722
1.1737038
1.1737049
1.1737048
1.1737052
1.1737059
1.1736819
1.173682
1.1736821
1.1736824
1.1736823
1.173657
1.1736552
1.1736546
1.1736539
1.1736529
1.173618
1.1736204
1.1736218
1.1736229
1.1736273
1.1735927
1.1735841
1.1735823
1.1735799
1.1735759
1.1735249
1.1735312
1.173535
1.1735377
1.173552
1.1735047
1.173482
1.173478
1.1734722
1.1734631
1.1733877
1.1734008
1.1734091
1.173415
1.1734493
1.1733849
1.173334
1.1733255
1.1733137
1.1732952
1.1731825
1.1732079
1.1732244
1.1732365
1.1733096
1.1732224
1.1731189
1.173102
1.1730795
1.1730451
1.1728791
1.1729246
1.1729549
1.1729781
1.1731209
1.1730036
1.1728103
1.172779
1.1727392
1.17268
1.1724445
1.1725197
1.1725712
1.1726123
1.1728675
1.1727106
1.1723803
1.1723272
1.172262
1.1721683
1.1718483
1.1719623
1.172043
1.1721099
1.1725263
1.1723138
1.1718013
1.171719
1.1716214
1.1714861
1.1710899
1.1712455
1.1713602
1.1714586
1.1720666
1.1717374
1.1710449
1.1709312
1.1708008
1.1706286
1.1701549
1.1703278
1.1704667
1.1705932
1.1713605
1.1713304
1.1704633
1.1703242
1.1701865
1.1700511
1.169722
1.1698028
1.1699222
1.1700544
1.1708489
1.1681635
1.1667166
1.1665403
1.1663666
1.1661382
1.1668337
1.1673013
1.1676277
1.1679772
1.1702854
1.1747368
1.1748408
1.1747891
1.1747133
1.1744893
1.1715289
1.1719839
1.1723387
1.1726689
1.1753531
1.1802268
1.1837764
1.184163
1.1844625
1.184701
1.1745445
1.1747796
1.1749512
1.1750904
1.1758598
1.1732677
1.1721893
1.1719966
1.1718232
1.1714772
1.1723718
1.172492
1.1725577
1.1726134
1.1722692
1.1673665
1.1648322
1.1644986
1.1641756
1.1637796
1.1696847
1.1697762
1.1699002
1.1700271
1.1706395
1.1713422
1.1705706
1.1704238
1.1702771
1.1701349
1.1701836
1.1703696
1.1705158
1.1706476
1.1713379
1.1717015
1.1710946
1.1709781
1.1708421
1.1706555
1.1711332
1.1712975
1.1714153
1.1715147
1.1720389
1.1722918
1.1718588
1.1717773
1.1716795
1.1715412
1.171908
1.1720214
1.1721002
1.1721651
1.1725098
1.1726976
1.1724305
1.1723802
1.1723181
1.1722275
1.1724988
1.1725696
1.1726174
1.1726553
1.1728575
1.1729951
1.1728454
1.1728172
1.1727812
1.172727
1.1729172
1.172958
1.1729847
1.1730052
1.1731141
1.1732168
1.1731391
1.1731243
1.1731048
1.1730747
1.173204
1.1732261
1.1732402
1.1732506
1.1733052
1.1733811
1.1733435
1.1733362
1.1733261
1.1733103
1.1733974
1.1734087
1.1734158
1.1734209
1.1734464
1.1735022
1.1734853
1.1734818
1.1734769
1.1734691
1.173528
1.1735334
1.1735368
1.1735391
1.1735501
1.1735912
1.1735844
1.1735828
1.1735807
1.1735773
1.173618
1.1736201
1.1736214
1.1736224
1.1736263
1.1736563
1.1736544
1.1736537
1.1736532
1.1736524
1.1736808
1.1736808
1.1736809
1.1736813
1.1736819
1.1737036
1.1737038
1.1737036
1.173704
1.1737048
1.1737243
1.1737231
1.1737225
1.1737227
1.173722
1.1737375
1.1737383
1.1737382
1.1737391
1.1737409
1.1737541
1.1737521
1.1737512
1.1737513
1.1737506
1.1737614
1.1737618
1.1737617
1.1737628
1.1737652
1.1737736
1.1737712
1.1737702
1.1737704
1.1737704
1.1737777
1.1737772
1.173777
1.1737781
1.1737807
1.1737856
1.1737831
1.1737822
1.1737825
1.1737836
1.1737884
1.1737867
1.1737863
1.1737874
1.17379
1.1737915
1.1737892
1.1737883
1.1737889
1.1737919
1.173794
1.1737917
1.1737913
1.1737924
1.1737951
1.1737932
1.1737905
1.1737894
1.1737897
1.1737907
1.173786
1.1737855
1.1737853
1.1737864
1.1737892
1.1737842
1.1737816
1.1737804
1.1737805
1.1737803
1.1737731
1.1737738
1.1737738
1.173775
1.1737776
1.1737692
1.1737668
1.1737657
1.1737656
1.1737643
1.1737536
1.1737552
1.1737553
1.1737564
1.1737587
1.1737458
1.1737439
1.1737428
1.1737427
1.1737408
1.1737255
1.1737273
1.1737274
1.1737282
1.1737298
1.1737106
1.1737096
1.173709
1.173709
1.1737073
1.173686
1.1736869
1.1736869
1.1736871
1.1736876
1.1736598
1.1736601
1.1736603
1.1736607
1.1736607
1.1736311
1.1736293
1.1736287
1.1736279
1.1736266
1.1735868
1.1735895
1.1735911
1.1735922
1.1735964
1.1735559
1.1735479
1.1735461
1.1735435
1.1735392
1.173482
1.1734887
1.1734927
1.1734955
1.1735087
1.1734535
1.1734326
1.1734284
1.1734224
1.1734127
1.1733286
1.1733425
1.1733512
1.1733574
1.1733892
1.1733144
1.1732671
1.1732581
1.1732458
1.1732263
1.173102
1.1731288
1.173146
1.1731589
1.1732272
1.173126
1.1730294
1.1730112
1.1729875
1.1729513
1.1727696
1.1728179
1.1728499
1.1728749
1.1730085
1.1728726
1.1726917
1.1726579
1.1726154
1.1725524
1.1722945
1.172375
1.1724302
1.172475
1.1727145
1.1725289
1.1722194
1.1721616
1.1720915
1.1719909
1.1716411
1.1717637
1.1718506
1.1719234
1.1723126
1.1720622
1.1715897
1.1715008
1.1713959
1.1712499
1.1707888
1.1709566
1.1710785
1.171183
1.171731
1.1713509
1.1707293
1.1706109
1.1704785
1.1703072
1.1701909
1.1703228
1.1704561
1.1705895
1.1713112
1.1708364
1.1702194
1.1701018
1.1699965
1.1699273
1.1656463
1.1659071
1.1660872
1.1662711
1.1676981
1.1696639
1.1672584
1.1668671
1.1665164
1.166021
1.1796886
1.1796561
1.1795879
1.1794575
1.1778582
1.1735918
1.1718956
1.1716855
1.1715209
1.1712288
1.1761538
1.1746136
1.1758216
1.1751356
1.1732126
1.1729811
1.1727573
1.1724107
1.1773925
1.1775171
1.177551
1.1775291
1.1771893
1.1816886
1.1818269
1.1818759
1.1818254
1.1815028
1.1785416
1.1792024
1.1791415
1.1790329
1.1787339
1.1738926
1.1743175
1.1745612
1.1748222
1.1760314
1.1785679
1.1785892
1.1785159
1.1783644
1.1781088
1.1792096
1.1822927
1.178319
1.1794526
1.1738554
1.1738775
1.1738289
1.1738553
1.1738373
1.1738299
1.173838
1.1738339
1.1737937
1.1737911
1.1737901
1.1737905
1.1737924
1.1737894
1.1737885
1.1737882
1.1737892
1.1737919
1.1737883
1.1737856
1.1737844
1.1737846
1.1737847
1.1737791
1.1737797
1.1737796
1.1737808
1.1737836
1.1737773
1.1737746
1.1737733
1.1737733
1.1737721
1.1737633
1.173765
1.1737651
1.1737664
1.1737689
1.1737586
1.1737563
1.1737551
1.1737549
1.1737527
1.1737398
1.1737422
1.1737423
1.1737434
1.1737455
1.1737299
1.1737282
1.1737272
1.173727
1.1737246
1.1737065
1.1737086
1.1737087
1.1737094
1.1737107
1.1736876
1.173687
1.1736866
1.1736866
1.173685
1.1736598
1.1736603
1.1736601
1.17366
1.1736597
1.1736267
1.1736279
1.1736286
1.1736291
1.1736302
1.1735957
1.1735919
1.1735909
1.1735894
1.1735869
1.1735393
1.1735435
1.173546
1.1735477
1.1735551
1.1735078
1.1734948
1.1734921
1.1734882
1.1734817
1.1734125
1.173422
1.1734278
1.1734319
1.1734524
1.1733881
1.1733563
1.1733503
1.1733418
1.1733281
1.1732259
1.173245
1.173257
1.1732658
1.1733128
1.1732254
1.1731571
1.1731445
1.1731276
1.1731014
1.1729508
1.1729862
1.1730093
1.1730269
1.1731234
1.1730052
1.1728715
1.1728472
1.172816
1.1727691
1.1725524
1.1726135
1.1726547
1.1726875
1.1728676
1.172708
1.1724701
1.1724268
1.1723732
1.1722952
1.1719929
1.1720905
1.1721585
1.1722144
1.1725199
1.1723037
1.1719194
1.1718487
1.1717642
1.1716446
1.1712547
1.1713978
1.1715002
1.1715867
1.1720509
1.1717112
1.1711722
1.1710703
1.1709513
1.1707884
1.1703274
1.1704866
1.1706139
1.1707292
1.1713383
1.1713229
1.1706554
1.1705284
1.1704028
1.1702899
1.1696394
1.1697105
1.1698121
1.1699242
1.170489
1.1674356
1.1652718
1.1650276
1.1648117
1.1645312
1.1721473
1.1723262
1.1723968
1.1724696
1.1722213
1.1723837
1.170525
1.1702571
1.1700027
1.169534
1.1763525
1.1765663
1.1767238
1.1768052
1.1772741
1.1790295
1.1789733
1.1789262
1.1787599
1.1762547
1.1766528
1.1768428
1.1770565
1.1775416
1.1776399
1.177741
1.1775351
1.1773502
1.1769685
1.187095
1.186838
1.186591
1.1862091
1.1829273
1.1818754
1.1835963
1.1836901
1.1837134
1.1837127
1.1763243
1.1765395
1.1767015
1.1767869
1.1772696
1.1723772
1.1705196
1.1702526
1.1699982
1.1695256
1.1721426
1.1723229
1.1723928
1.1724646
1.1722118
1.1674189
1.1652616
1.1650183
1.1648038
1.1645251
1.1696329
1.1697023
1.169803
1.1699142
1.1704733
1.1713081
1.1706472
1.1705209
1.1703962
1.1702846
1.1703187
1.1704769
1.1706036
1.1707184
1.1713243
1.1716983
1.1711613
1.1710595
1.1709409
1.1707788
1.171244
1.1713866
1.1714889
1.1715753
1.1720391
1.1722929
1.1719083
1.1718375
1.171753
1.1716336
1.1719812
1.1720788
1.1721469
1.1722031
1.17251
1.1726989
1.1724593
1.1724157
1.1723619
1.1722837
1.1725411
1.1726025
1.172644
1.1726771
1.1728593
1.1729977
1.172862
1.1728373
1.1728058
1.1727585
1.1729405
1.1729763
1.1729998
1.1730178
1.1731165
1.1732191
1.1731487
1.1731358
1.1731186
1.1730919
1.1732169
1.1732364
1.1732488
1.1732579
1.173307
1.1733828
1.1733491
1.1733428
1.173334
1.17332
1.1734048
1.1734147
1.1734209
1.1734252
1.1734476
1.1735033
1.1734886
1.1734856
1.1734815
1.1734747
1.1735324
1.173537
1.1735398
1.1735417
1.1735508
1.1735916
1.1735863
1.1735851
1.1735834
1.1735807
1.1736205
1.173622
1.173623
1.1736238
1.1736264
1.1736561
1.1736552
1.1736548
1.1736545
1.1736541
1.1736818
1.1736815
1.1736814
1.1736816
1.1736813
1.1737028
1.1737036
1.1737036
1.1737041
1.1737052
1.1737242
1.1737228
1.1737221
1.1737221
1.1737209
1.1737362
1.1737374
1.1737375
1.1737384
1.1737404
1.1737533
1.1737511
1.1737501
1.1737502
1.1737491
1.1737598
1.1737605
1.1737605
1.1737616
1.173764
1.1737722
1.1737697
1.1737687
1.1737688
1.1737687
1.1737759
1.1737754
1.1737752
1.1737763
1.173779
1.1737837
1.1737812
1.1737803
1.1737807
1.1737818
1.1737864
1.1737845
1.1737841
1.173785
1.1737876
1.1737904
1.173788
1.1737872
1.1737878
1.1737903
1.173793
1.1737892
1.1737887
1.1737896
1.1737922
1.1737929
1.1737906
1.1737901
1.1737911
1.1737937
1.1737919
1.1737893
1.1737883
1.1737886
1.1737896
1.173785
1.1737844
1.1737842
1.1737853
1.1737879
1.173783
1.1737804
1.1737793
1.1737794
1.1737792
1.173772
1.1737727
1.1737726
1.1737738
1.1737763
1.1737679
1.1737655
1.1737644
1.1737643
1.1737631
1.1737524
1.1737538
1.1737539
1.1737549
1.1737571
1.1737439
1.1737421
1.1737411
1.1737411
1.1737394
1.1737239
1.1737254
1.1737254
1.1737262
1.1737276
1.173708
1.1737071
1.1737066
1.1737067
1.1737055
1.173684
1.1736842
1.173684
1.1736841
1.1736843
1.1736561
1.1736567
1.1736572
1.1736576
1.1736585
1.1736287
1.1736258
1.1736249
1.1736238
1.1736221
1.1735816
1.1735848
1.1735867
1.1735881
1.1735937
1.1735529
1.1735431
1.1735409
1.1735378
1.1735327
1.1734743
1.1734818
1.1734864
1.1734897
1.1735052
1.1734498
1.1734257
1.1734208
1.173414
1.1734031
1.173317
1.1733324
1.1733422
1.1733492
1.173385
1.1733098
1.1732569
1.1732468
1.173233
1.1732115
1.173083
1.1731127
1.1731319
1.1731462
1.1732218
1.1731202
1.1730132
1.172993
1.1729667
1.1729264
1.1727372
1.1727909
1.1728266
1.1728544
1.1730018
1.1728655
1.1726649
1.1726272
1.1725797
1.1725093
1.1722387
1.172329
1.1723909
1.1724408
1.1727061
1.1725201
1.1721757
1.1721109
1.1720321
1.1719188
1.1715522
1.1716906
1.1717884
1.1718699
1.1723025
1.1720517
1.1715252
1.1714256
1.1713075
1.1711426
1.1706644
1.1708517
1.1709882
1.171105
1.1717137
1.1713528
1.1706568
1.1705244
1.1703776
1.1701907
1.1701402
1.1702835
1.1704312
1.1705786
1.1713544
1.1706529
1.1700306
1.1699027
1.1697775
1.1696844
1.1637855
1.1641829
1.164507
1.1648415
1.1673781
1.1722801
1.1726167
1.1725596
1.1724926
1.1723711
1.1714786
1.1718252
1.1719992
1.1721924
1.1732761
1.1758541
1.1750901
1.174951
1.1747799
1.1745477
1.1846989
1.184458
1.1841581
1.1837713
1.180222
1.1753451
1.1726703
1.1723416
1.1719885
1.1715372
1.1768796
1.1769982
1.1770453
1.1770382
1.1766993
1.1757596
1.1755855
1.1755189
1.1754164
1.1751839
1.1712166
1.1716414
1.171885
1.172162
1.1742959
1.1735795
1.1718678
1.1716566
1.1714906
1.1711941
1.1729046
1.1731891
1.173339
1.1734842
1.1745974
1.1751181
1.1731713
1.1729342
1.1727044
1.1723504
1.1773294
1.1774621
1.1775037
1.1774888
1.1771804
1.1725967
1.1708059
1.1705029
1.1701767
1.1696643
1.1718851
1.1720902
1.1721858
1.1722796
1.1722303
1.1673251
1.1651458
1.1648978
1.1646765
1.1643661
1.169624
1.1697031
1.1698121
1.1699266
1.1704871
1.1713133
1.1706412
1.1705118
1.1703832
1.1702671
1.1703057
1.1704667
1.1705954
1.1707116
1.1713207
1.1716988
1.1711615
1.1710594
1.1709401
1.1707768
1.1712456
1.1713884
1.1714907
1.1715772
1.1720399
1.1722936
1.1719102
1.1718396
1.1717552
1.1716361
1.1719839
1.1720811
1.172149
1.172205
1.1725106
1.1726997
1.1724611
1.1724176
1.172364
1.1722862
1.1725431
1.1726042
1.1726456
1.1726786
1.17286
1.1729986
1.1728632
1.1728386
1.1728072
1.1727601
1.1729418
1.1729775
1.1730009
1.1730188
1.1731173
1.1732201
1.1731496
1.1731367
1.1731196
1.173093
1.1732178
1.1732373
1.1732497
1.1732588
1.1733079
1.1733837
1.17335
1.1733436
1.1733348
1.1733209
1.1734054
1.1734153
1.1734215
1.1734259
1.1734483
1.173504
1.1734894
1.1734865
1.1734824
1.1734756
1.173533
1.1735376
1.1735403
1.1735423
1.1735514
1.1735921
1.1735868
1.1735856
1.1735839
1.1735811
1.1736209
1.1736224
1.1736234
1.1736242
1.1736267
1.1736564
1.1736555
1.1736551
1.1736548
1.1736544
1.173682
1.1736817
1.1736816
1.1736818
1.1736815
1.173703
1.173704
1.1737039
1.1737044
1.1737055
1.1737245
1.173723
1.1737223
1.1737224
1.1737211
1.1737365
1.1737378
1.1737378
1.1737388
1.1737408
1.1737534
1.1737513
1.1737503
1.1737503
1.1737492
1.1737599
1.1737607
1.1737606
1.1737618
1.1737642
1.1737724
1.1737699
1.1737688
1.173769
1.1737688
1.173776
1.1737756
1.1737754
1.1737766
1.1737792
1.1737841
1.1737816
1.1737806
1.1737809
1.1737819
1.1737865
1.1737848
1.1737844
1.1737854
1.1737881
1.1737909
1.1737884
1.1737875
1.173788
1.1737903
1.1737927
1.1737889
1.1737883
1.1737892
1.1737917
1.1737929
1.1737909
1.1737906
1.1737917
1.1737945
1.1737924
1.1737897
1.1737886
1.1737889
1.1737897
1.173785
1.1737847
1.1737846
1.1737857
1.1737885
1.1737837
1.173781
1.1737798
1.1737798
1.1737793
1.1737722
1.1737733
1.1737733
1.1737745
1.1737772
1.1737689
1.1737664
1.1737652
1.1737651
1.1737635
1.1737529
1.1737548
1.173755
1.1737561
1.1737585
1.1737456
1.1737436
1.1737425
1.1737423
1.1737401
1.1737248
1.173727
1.1737272
1.1737281
1.1737298
1.1737106
1.1737094
1.1737088
1.1737087
1.1737067
1.1736853
1.1736866
1.1736866
1.1736869
1.1736875
1.1736598
1.17366
1.1736601
1.1736604
1.1736601
1.1736306
1.1736291
1.1736285
1.1736278
1.1736265
1.1735864
1.1735891
1.1735906
1.1735917
1.1735958
1.1735554
1.1735474
1.1735456
1.173543
1.1735387
1.1734811
1.1734877
1.1734917
1.1734945
1.1735078
1.1734526
1.1734314
1.1734272
1.1734213
1.1734116
1.1733273
1.1733411
1.1733496
1.1733557
1.1733879
1.1733128
1.1732651
1.1732562
1.1732441
1.1732248
1.1731003
1.1731267
1.1731436
1.1731562
1.1732249
1.1731232
1.1730262
1.1730085
1.1729853
1.1729499
1.1727686
1.1728153
1.1728465
1.1728708
1.1730043
1.1728669
1.1726871
1.1726544
1.1726133
1.1725525
1.172296
1.1723734
1.1724266
1.1724697
1.1727061
1.1725188
1.1722147
1.172159
1.1720915
1.1719946
1.1716475
1.1717661
1.17185
1.1719201
1.172301
1.1720497
1.1715883
1.1715023
1.1714004
1.1712583
1.1707909
1.1709532
1.1710718
1.1711732
1.1717071
1.1713322
1.1707249
1.1706096
1.1704821
1.1703226
1.1702856
1.1703996
1.1705267
1.1706549
1.1713217
1.1704999
1.1699465
1.1698337
1.1697269
1.1696503
1.1643979
1.1647048
1.1649238
1.1651693
1.1673354
1.1722483
1.1723107
1.1722199
1.1721283
1.1719293
1.1697167
1.170218
1.1705374
1.1708357
1.1726112
1.1739273
1.1728488
1.1726958
1.1725322
1.1722688
1.1694742
1.1698087
1.1700221
1.1702531
1.1713671
1.1679646
1.1659849
1.1657688
1.1655668
1.1652904
1.1695588
1.1696627
1.1697886
1.169922
1.1707417
1.1713603
1.1704955
1.1703548
1.1702127
1.170075
1.170139
1.1703154
1.1704572
1.1705854
1.1713613
1.1717309
1.1710328
1.1709177
1.1707847
1.1706078
1.171078
1.1712377
1.1713547
1.1714544
1.1720671
1.1723167
1.1717996
1.1717162
1.1716168
1.1714781
1.1718429
1.1719595
1.1720417
1.1721095
1.1725298
1.1727144
1.172381
1.1723271
1.1722607
1.172165
1.1724432
1.17252
1.1725723
1.1726141
1.1728717
1.1730078
1.1728126
1.1727809
1.1727404
1.1726801
1.1728802
1.1729266
1.1729573
1.1729809
1.173125
1.1732263
1.1731219
1.1731047
1.1730819
1.1730468
1.1731846
1.1732106
1.1732273
1.1732395
1.1733133
1.1733882
1.173337
1.1733284
1.1733165
1.1732977
1.1733901
1.1734035
1.1734119
1.1734179
1.1734524
1.1735076
1.1734848
1.1734808
1.173475
1.1734658
1.1735276
1.1735339
1.1735378
1.1735405
1.1735549
1.1735954
1.1735869
1.1735852
1.1735828
1.1735788
1.1736208
1.1736232
1.1736246
1.1736257
1.1736301
1.1736596
1.173658
1.1736574
1.1736568
1.1736559
1.1736846
1.1736847
1.1736848
1.1736851
1.1736848
1.1737062
1.1737076
1.1737075
1.1737079
1.1737088
1.1737282
1.173727
1.1737263
1.1737263
1.1737243
1.1737396
1.1737417
1.1737418
1.1737428
1.1737446
1.1737576
1.1737555
1.1737545
1.1737545
1.1737524
1.1737631
1.1737648
1.1737648
1.173766
1.1737684
1.1737765
1.1737741
1.173773
1.1737731
1.1737718
1.173779
1.1737795
1.1737794
1.1737806
1.1737832
1.1737877
1.1737852
1.1737842
1.1737845
1.1737847
1.1737894
1.1737885
1.1737882
1.1737893
1.1737919
1.1737935
1.1737909
1.17379
1.1737904
1.1737927
1.1737921
1.1737901
1.1737898
1.1737908
1.1737934
1.1737917
1.1737892
1.1737881
1.1737884
1.1737889
1.1737842
1.1737843
1.1737841
1.1737853
1.1737879
1.1737832
1.1737806
1.1737794
1.1737795
1.1737785
1.1737714
1.1737729
1.1737729
1.1737741
1.1737767
1.1737683
1.173766
1.1737648
1.1737647
1.1737626
1.1737519
1.1737543
1.1737544
1.1737555
1.1737577
1.1737445
1.1737427
1.1737417
1.1737416
1.173739
1.1737237
1.173726
1.1737261
1.1737269
1.1737283
1.1737086
1.1737078
1.1737073
1.1737073
1.1737054
1.173684
1.1736848
1.1736846
1.1736847
1.1736848
1.1736561
1.173657
1.1736575
1.1736579
1.1736587
1.1736292
1.1736257
1.1736248
1.1736236
1.1736215
1.1735799
1.1735836
1.1735858
1.1735873
1.1735945
1.1735541
1.1735412
1.1735388
1.1735353
1.1735295
1.1734683
1.173477
1.1734823
1.173486
1.1735067
1.1734518
1.1734197
1.1734142
1.1734064
1.1733938
1.1733028
1.1733205
1.1733317
1.1733398
1.1733875
1.173313
1.1732431
1.1732315
1.1732158
1.1731912
1.1730553
1.1730886
1.1731104
1.1731266
1.1732259
1.1731253
1.1729868
1.1729643
1.172935
1.1728906
1.1726927
1.1727506
1.1727896
1.17282
1.1730079
1.1728729
1.1726226
1.1725823
1.1725317
1.1724576
1.1721811
1.172274
1.1723384
1.1723907
1.1727153
1.1725323
1.1721197
1.1720534
1.1719732
1.1718594
1.1714944
1.1716305
1.1717281
1.1718101
1.1723195
1.1720728
1.1714634
1.1713647
1.1712489
1.1710905
1.1706144
1.1707909
1.1709235
1.1710385
1.1717372
1.1713776
1.170588
1.1704585
1.1703151
1.1701342
1.1700243
1.1701729
1.1703185
1.170462
1.1713592
1.1707212
1.1698803
1.1697476
1.1696218
1.1695204
1.165856
1.1660891
1.16626
1.1664414
1.1680241
1.1708134
1.1686234
1.1682589
1.167897
1.1674164
1.173419
1.173578
1.1736419
1.1736853
1.1740435
1.1750742
1.1728329
1.1725823
1.1723636
1.1719675
1.1787544
1.1791193
1.179372
1.1795651