/*--------------------------------*- C++ -*----------------------------------*\
  =========                 |
  \\      /  F ield         | OpenFOAM: The Open Source CFD Toolbox
   \\    /   O peration     | Website:  https://openfoam.org
    \\  /    A nd           | Version:  7
     \\/     M anipulation  |
\*---------------------------------------------------------------------------*/
FoamFile
{
    version     2.0;
    format      ascii;
    class       volScalarField;
    location    "240";
    object      omega;
}
// * * * * * * * * * * * * * * * * * * * * * * * * * * * * * * * * * * * * * //

dimensions      [0 0 -1 0 0 0 0];

internalField   nonuniform List<scalar> 
25278
(
155.2927
149.1866
148.40437
148.40435
143.34045
149.18653
155.76896
155.29278
155.76861
156.26817
154.76802
154.09296
150.98393
147.40978
158.42638
148.36286
149.173
159.34936
172.28667
161.28683
152.86368
150.50233
148.45389
151.7995
155.33411
151.79919
148.45347
152.87493
154.18931
155.38776
159.06904
157.76471
169.39083
161.49745
163.08872
164.49732
164.79208
168.06866
167.64996
176.90838
171.29636
171.69598
176.84187
176.93633
167.7684
159.47859
153.6307
155.84715
162.48457
162.346
164.7058
163.6682
184.62507
177.87501
170.68499
170.97969
173.90081
173.58685
187.37574
182.15909
182.15204
186.98386
190.9061
175.92103
175.80939
177.15355
177.21577
193.15982
193.95579
191.47676
212.59839
204.7579
196.08509
187.65992
179.23407
173.75701
163.08441
155.38571
150.49824
148.30221
145.38629
158.33672
159.29273
171.90175
151.29081
148.41174
172.75771
200.71491
182.48182
166.34274
168.57404
186.0274
182.78466
219.95839
221.42834
185.71534
185.18072
168.65716
171.71881
189.32708
185.44964
222.14271
222.95712
189.06575
209.83121
204.22675
204.79257
275.21254
272.30192
333.79728
218.73799
225.38106
346.70393
358.97727
277.11248
278.80921
372.05705
232.8935
224.38707
224.61584
171.95203
151.28786
143.32849
183.20649
220.75234
273.24883
334.53613
218.9202
172.8243
148.41045
145.37394
148.28627
159.31408
158.38025
182.72829
201.00522
205.11542
225.60072
347.66594
276.26289
278.27502
360.21897
373.64876
233.18646
210.17482
204.54164
185.40921
185.97625
222.24313
186.47822
158.53019
166.48844
168.71128
168.77155
159.41327
171.82014
189.29592
223.78266
280.11205
425.82124
738.01101
734.22744
422.80747
281.88108
211.02206
205.32282
226.78149
235.64596
385.02453
369.60474
279.87617
415.0823
679.7399
761.36232
1262.7558
1095.3446
658.41784
661.15623
1077.5941
1238.747
760.01284
679.7735
417.51434
282.40987
222.97031
185.8518
189.72773
212.13954
284.60596
393.96557
376.93277
229.19394
172.7171
206.36731
238.45017
236.13862
410.1238
857.03778
1447.0163
1480.2479
860.5137
399.24773
233.413
210.16069
188.53602
171.94061
161.48162
154.18069
157.73826
159.05803
164.4712
169.30228
171.2448
171.66102
164.77722
168.03425
167.59996
176.78708
176.75579
176.88073
171.24993
163.18421
156.08416
153.62993
157.59505
164.46328
165.37853
160.88153
159.47497
164.64237
165.24779
171.69674
176.86108
168.38756
167.74798
170.53647
162.47668
155.8495
152.8524
161.21543
162.31929
170.5893
177.59066
181.92347
181.9726
170.91715
173.79706
173.44274
186.98157
186.67984
190.48503
175.78765
164.66364
163.56902
184.13211
175.61576
190.93881
193.40139
176.95631
177.0808
192.72294
192.24716
190.17031
186.5923
182.06775
181.83877
171.08914
173.73751
173.18773
175.05808
164.52836
165.74445
163.743
170.86098
168.25302
168.85601
165.93822
171.96434
171.47723
176.76042
176.81022
181.43286
171.38411
173.82341
173.29383
185.64883
181.57448
188.81452
185.66868
182.14767
179.03395
174.13859
164.4588
157.59325
156.08375
163.18325
164.64953
165.24801
168.39513
176.88951
171.70249
171.26964
179.26692
173.67066
179.4107
182.46433
182.79702
182.81209
187.76813
179.57191
191.05419
190.32599
202.66759
202.08766
219.98644
203.11
190.97464
179.51144
179.15365
188.31669
190.22847
202.28554
187.4304
187.58705
201.7726
219.60665
220.29806
202.88176
222.30381
220.73969
245.43995
242.97643
229.15225
219.56682
210.22609
202.53783
195.05167
188.70851
188.75835
193.41072
186.63728
186.61067
193.76965
201.1717
200.94266
194.97272
190.24816
190.60199
194.56983
188.2968
188.3248
182.53977
186.1977
186.13306
193.03871
192.77597
200.06711
194.38874
201.62538
201.76336
202.45973
209.2895
209.97128
219.18506
218.60144
209.96918
202.64763
190.19069
179.22841
179.39215
190.56661
194.45645
188.21481
182.41367
182.73
182.72333
188.58134
188.65459
193.23237
186.51861
186.46077
193.55302
200.86887
194.88381
194.83275
202.28068
202.33248
209.5665
208.9399
200.6844
200.28024
192.89358
186.03973
186.12881
182.50535
188.26385
192.66406
199.89303
194.298
201.50444
201.61201
208.3768
207.86091
207.28538
200.70135
189.47358
189.81634
179.243
182.02669
182.27802
187.88248
187.76711
192.32619
192.13967
185.8011
185.39743
185.54028
182.15821
187.60047
187.50306
191.85528
191.69417
198.49123
193.30453
193.39831
193.70898
193.77991
199.46831
199.14011
206.83835
200.70078
200.12035
200.0952
205.95397
206.34834
198.78807
203.75185
195.86503
188.41554
188.84875
196.21395
196.52022
196.92158
189.30351
189.31582
189.84325
189.87725
195.80273
195.57842
209.02663
215.11033
214.84427
228.94859
203.70245
203.85135
230.3156
267.30068
240.6107
278.37032
276.57146
273.92209
239.97137
265.73754
320.80973
326.30313
407.9547
301.96874
245.5868
211.25698
230.77637
216.0301
215.33265
210.77401
243.89827
255.59835
258.07016
336.50178
383.4361
542.32552
556.26766
408.07882
300.91704
337.99713
300.11209
286.78065
272.28828
259.09654
247.05601
236.81663
227.20412
218.69882
210.00958
209.7811
219.1666
219.39714
229.70401
228.57012
218.16678
217.40744
209.01394
202.2648
209.17348
208.84029
217.02359
208.10853
208.67825
200.4948
206.11573
197.51253
189.45504
181.90894
171.10654
170.57547
173.25229
173.77509
186.27197
186.81149
182.19213
190.09976
196.22701
204.48893
230.89451
215.7355
216.09841
232.44815
249.10584
247.24023
211.94995
216.6093
217.48103
262.25919
259.57985
350.9852
309.98507
269.96999
241.52184
242.23434
281.75486
271.5433
333.45842
278.35209
275.74737
328.10911
429.86885
427.0986
310.53942
348.36442
580.63394
602.17031
482.75721
375.77248
309.33969
269.94455
241.92572
222.92958
207.50867
192.56171
176.31917
164.54085
165.73916
163.74044
160.87989
165.37479
165.93257
168.84905
168.25199
176.76897
171.47438
171.95752
176.80493
181.43546
171.37657
170.86362
173.30817
173.82149
185.3538
185.71933
181.60242
188.89191
185.71745
182.17124
179.03974
179.24005
182.03021
182.29036
185.8311
192.19558
187.91111
187.8112
192.40633
199.6024
193.85027
189.49398
189.82333
193.43113
187.52082
187.60564
182.15362
185.54119
185.41207
191.88905
191.70982
198.53047
193.32339
200.12748
200.17327
200.77111
193.75915
199.23683
206.98586
207.47867
200.79746
208.00467
201.15708
200.82556
207.10568
207.76188
215.55722
216.22884
225.9755
216.61266
217.82071
218.11097
219.32222
229.02812
230.21727
241.90081
240.72101
228.49685
240.36238
241.49635
256.14257
254.07595
252.41948
239.37752
227.96367
217.78907
226.42738
215.66581
216.44983
206.70818
197.97683
190.02318
193.66831
193.78949
203.1247
198.31223
206.91298
213.04017
212.50858
202.47499
201.86063
192.9165
192.84967
189.41118
197.11043
201.32585
205.41643
195.76666
195.95822
196.80493
197.07278
200.43109
200.09616
211.22153
206.90565
207.59158
212.25368
225.4972
219.08914
218.47535
224.53614
240.76037
232.03301
223.95517
225.20984
217.12302
228.12253
227.49882
237.20287
238.4314
254.76206
241.21758
239.9785
252.53171
250.70513
235.78245
222.90017
211.72716
210.92847
205.51485
214.85403
221.81301
229.18456
216.39373
217.43435
206.12063
210.2431
199.04518
198.79837
209.36211
221.90587
223.23789
238.97213
230.63061
246.36299
248.28817
249.67944
233.39039
242.84968
252.27554
231.67485
216.39031
203.24753
190.47588
175.1448
175.5641
176.70703
191.58352
189.66726
188.87852
175.02
175.44568
176.46677
176.06238
190.63834
189.93384
188.30324
198.9251
196.81301
194.19473
191.53031
188.44327
188.89946
192.14564
192.15389
200.73597
196.66168
196.31431
200.26487
199.75473
195.9287
195.63611
188.48123
191.56612
199.36112
202.86058
194.12927
196.70991
206.11272
206.79116
203.38887
204.04236
194.87426
194.99604
197.83461
197.66481
207.62479
208.42147
204.66997
215.366
210.14528
204.92403
204.3865
209.41508
219.72838
213.32019
214.05782
220.74173
227.75041
226.365
214.39755
219.32341
220.58517
235.2095
237.10146
245.49189
227.33663
213.02197
201.20523
201.57871
202.74237
205.23492
205.80152
220.22947
218.80313
215.27299
214.09733
217.44537
203.89799
203.46336
216.19862
218.56177
204.89754
205.41416
206.83084
207.74408
208.44296
224.39736
222.78707
221.43506
219.94395
221.22643
206.26634
205.7275
219.78026
238.31029
236.24892
232.32587
234.23927
228.97034
230.57556
236.09357
237.46682
262.17239
259.21003
250.04765
247.83685
256.63537
253.85946
260.95424
264.06034
238.38388
240.45093
242.71563
244.2859
274.4472
271.10987
266.90877
306.88144
292.02118
275.97253
261.10458
263.1842
290.58253
270.0777
267.73251
286.81069
283.67374
258.65965
256.08501
244.40973
234.33019
225.35983
237.24584
227.00444
238.12153
226.55598
217.70823
208.70663
216.70837
226.65181
227.55663
217.97706
227.27731
239.05514
237.83812
250.79424
249.21807
236.86054
225.42839
216.51979
207.89855
207.67875
216.33916
224.87978
215.35776
215.97325
225.68326
236.61885
235.52566
224.79828
216.40944
225.11615
224.22191
214.8737
206.45665
198.85423
203.87297
203.4131
208.10301
208.72569
218.7747
212.6266
211.99113
206.02491
214.29171
206.89382
215.24859
215.39092
223.81964
215.33479
207.04467
206.85219
215.21202
223.35955
214.19049
214.72264
224.04103
234.45757
233.5265
223.30523
233.6407
223.48884
232.33196
221.56956
222.41017
223.33664
224.31457
232.90282
231.53214
245.16594
234.63334
235.90835
246.97378
248.83598
262.73239
265.28432
287.91439
267.98313
252.44756
238.62119
254.21501
255.48169
272.55607
270.30455
290.71979
270.43391
272.57009
294.32465
321.65082
293.4203
291.0343
319.18006
322.74869
363.96857
358.21757
318.10878
314.38793
287.86922
268.25306
266.08873
250.72054
265.62549
284.97108
310.49823
284.70278
311.06904
280.2889
276.6805
253.43588
242.44828
240.52608
250.75431
233.3514
231.5609
218.12139
213.47726
212.64593
217.01895
229.89023
223.84151
217.89895
229.03468
230.23886
243.44131
233.43491
245.87067
234.61866
235.72268
247.72842
246.32496
245.04182
258.15957
244.45617
256.59539
241.83462
252.54285
236.94339
238.67555
225.05294
248.12123
245.60901
265.41109
269.12359
254.9708
257.5219
260.13386
281.37716
263.26904
249.02639
247.41323
260.9526
279.15466
261.9217
263.976
282.04827
306.41915
302.19356
277.98256
301.43112
272.92951
293.03356
262.57891
240.65818
224.09894
210.89414
199.86154
200.15049
202.24133
201.89067
213.70561
214.87375
211.88867
225.69138
230.37473
228.45316
247.93457
250.9393
243.0841
266.19595
269.66518
272.91979
288.55881
284.69782
331.85226
303.05781
307.34907
311.13629
314.71369
278.18831
294.64099
345.80124
340.76399
336.73685
368.19985
303.13688
298.88241
307.28152
264.85086
268.13025
240.55629
240.20946
221.06406
206.1978
191.53031
176.69433
164.53092
155.83894
152.85328
159.29912
172.15752
185.14045
168.60637
185.22603
204.73707
226.18762
234.88541
210.33084
279.60759
380.61159
366.23619
277.90019
221.7041
222.52124
189.08349
171.65881
159.26642
189.026
209.95162
278.65744
418.67025
749.54669
671.02864
411.5574
652.87959
1075.9216
1237.526
727.1059
372.51117
359.08783
276.807
204.3082
171.92897
224.56907
206.58368
283.30402
418.38354
657.0431
1071.5277
1230.3867
733.01303
426.87697
771.18537
687.83716
379.55763
397.37216
285.62242
212.39456
172.7648
229.5586
238.89291
236.55722
414.5304
872.45947
1434.924
1445.5627
844.47167
393.46988
232.61993
184.49919
163.64425
164.6902
162.32065
161.24606
177.71392
173.50309
175.7339
177.12184
177.19033
175.8594
190.72017
193.07702
193.8695
191.25689
187.15446
186.79632
173.83007
170.92345
170.6128
181.99651
182.01782
182.08635
170.53206
162.46753
163.72868
165.73405
176.05402
176.46078
175.43098
174.99575
175.52939
175.0973
176.30001
192.49282
190.32485
189.55296
188.79929
190.60029
189.90919
188.25666
185.30901
173.80332
173.27924
173.73558
173.19792
186.6611
186.16239
181.83752
171.0753
170.84204
171.3603
181.40556
181.55527
185.64559
197.6299
199.92683
202.02854
203.44776
204.32158
204.37707
203.60799
203.17642
203.91863
216.858
215.78489
217.10024
218.24388
235.99448
234.05701
231.8744
233.67628
257.59719
254.15881
257.6321
261.3188
302.13442
294.04014
280.43159
275.81699
319.25564
326.02939
298.27141
343.6852
306.43569
343.24169
348.80991
353.77585
315.32203
354.89308
359.31474
361.97359
417.41403
415.52284
526.91357
421.84226
424.99917
529.80723
677.59435
693.38764
486.29933
371.86499
392.40363
315.55733
317.96473
396.68573
534.05136
542.77912
873.04849
840.69861
1364.6551
968.82269
665.17776
496.32824
408.07895
352.83364
318.19092
291.75669
271.7321
254.33899
240.11956
238.95692
226.65898
215.82758
206.27329
197.69204
197.97204
202.61065
193.46533
193.40077
202.04229
201.4982
197.27553
205.75028
205.21705
214.40343
215.12656
221.99561
211.14127
211.824
212.26179
206.41348
216.42247
224.04729
222.92408
230.40801
217.45142
206.28528
196.44317
196.6386
206.86957
211.28081
199.86311
199.61224
210.37681
209.51409
205.59248
195.66364
192.70038
192.67926
201.03105
210.44033
221.04062
227.91925
215.634
204.97928
195.52813
186.13758
189.46904
175.51494
176.65822
176.23397
176.24018
164.52743
155.84227
149.17258
148.36207
155.24639
155.75347
147.35333
148.41586
150.4791
152.84606
163.57522
164.66609
176.97037
184.18432
193.43645
192.7536
177.09529
175.8122
175.64762
191.02628
190.55739
186.74555
173.81671
162.3176
161.21982
177.65495
173.46659
187.06487
181.99227
170.60933
170.92962
182.02453
182.10372
186.64556
190.22943
192.27577
191.40442
191.38328
190.52709
188.76652
174.99792
175.44555
188.26133
185.33027
194.10286
191.47373
192.05774
192.02606
200.50674
200.09595
199.63845
199.28859
195.60149
188.47284
191.53752
194.07562
202.7343
203.19758
203.775
194.73857
194.81232
204.31904
207.924
197.57572
198.46824
198.6455
201.09167
202.15861
202.56026
215.17252
214.20218
217.55424
204.5638
205.02268
218.8118
234.98981
229.59958
223.90376
217.94982
231.60717
240.21005
238.3499
223.08805
221.95465
216.54453
229.17661
236.77481
235.15135
220.80265
208.74907
212.22794
200.80271
202.99504
203.33857
216.35335
213.16672
227.25591
228.6631
246.698
248.69877
257.65111
254.97007
233.78739
232.155
230.47836
225.8378
242.70187
244.73562
252.66184
250.22632
256.83004
234.24497
217.57917
215.26585
214.10103
211.2357
199.82828
199.61484
197.47004
207.2355
206.50563
196.67351
196.62251
205.91686
216.6126
212.3903
207.95907
203.33664
211.85159
212.41963
213.04156
204.2146
204.68963
213.69703
220.1062
209.75129
209.11462
219.22326
218.39341
208.50933
213.11265
213.90725
214.74243
226.68442
225.50269
231.96597
218.58038
219.66503
233.53295
250.49574
240.70597
231.92217
223.79463
224.73109
225.69187
237.6955
236.44326
247.21922
233.17052
234.45451
235.72742
250.55835
252.62216
270.03807
267.93494
253.13464
269.61189
288.29348
291.78308
316.20246
288.64966
266.38382
264.19544
245.81785
257.20791
280.78963
284.29972
314.0047
310.51433
286.35219
312.66495
347.11606
352.86179
404.32073
347.1335
305.01489
301.4687
270.20544
284.21465
326.42136
331.49356
393.17798
389.74255
343.906
399.91583
484.38773
490.54945
611.34097
448.11927
357.67998
353.295
297.62196
262.15544
237.96037
220.12699
206.14211
206.70529
221.44428
223.00994
207.69595
207.11379
221.57421
220.17201
218.79716
204.84003
204.42165
205.30194
205.74833
205.77484
207.14788
207.72804
215.4321
216.12999
231.07414
258.37936
255.93214
244.5344
210.98868
211.48086
246.22094
303.5878
337.50276
385.47283
546.15938
561.30314
339.21502
302.75381
412.88846
411.98397
328.86612
268.55058
230.88144
204.07206
209.36232
195.7543
195.95553
203.90773
229.49495
215.21956
215.51929
241.44853
279.7886
278.21247
275.53194
323.51315
267.04568
240.78736
237.52619
247.97269
260.27172
273.69378
288.27365
301.36055
309.49012
308.99693
269.66523
264.9175
239.25778
241.77229
240.39179
266.61604
263.92586
259.58123
236.12226
238.46673
236.47487
218.89015
217.5155
216.28985
203.22927
201.86787
201.60444
213.09016
210.38142
209.4923
198.75061
198.6039
208.75385
211.15056
200.40677
200.59855
212.03693
225.56342
221.76604
217.55522
230.47354
224.39046
223.35891
217.6308
228.58089
221.34674
222.09763
222.9221
234.07637
235.21868
245.57381
243.99342
230.72955
229.61515
242.50438
232.99766
232.01714
241.12963
255.61787
244.06662
245.35477
246.76214
248.255
249.83376
251.46032
267.48508
265.38814
282.81199
263.59222
265.75824
248.89628
261.96613
244.10721
242.39752
259.70116
274.86895
252.76676
255.01745
277.89878
306.78087
283.43789
280.50443
305.40513
309.07133
285.55429
309.19093
286.66429
289.45953
314.45143
343.04259
312.68896
316.3299
322.81834
326.64752
424.00005
414.49381
407.73183
521.29469
400.46909
407.31129
535.06723
808.82042
609.49485
623.4627
1203.3457
1057.6619
1476.2903
1666.488
823.57434
1254.8834
804.01982
591.6484
581.40005
825.67616
791.58176
1403.2797
989.90709
1118.8808
1576.8336
2196.1706
1932.7184
1167.1122
1975.6778
2251.0649
2473.2244
2132.3849
2121.3157
1945.7518
1456.0718
1037.5119
569.6077
345.41476
261.37463
217.21035
216.34498
211.39883
212.02648
247.4188
245.51932
258.62684
347.32836
304.76706
306.02954
415.35339
415.602
587.36044
526.32095
393.27922
316.45346
273.73222
243.93339
224.22177
208.35865
207.67106
206.59825
207.26043
222.44074
220.97838
222.61241
242.36098
239.52306
241.00076
268.03714
265.00408
270.35457
267.36157
264.08724
237.97669
219.62916
205.66808
204.71334
205.21084
219.51339
218.16617
215.68035
203.21612
203.61968
204.92256
205.45912
202.87378
202.40224
214.63498
218.18735
219.57569
215.70012
230.4579
236.2665
234.90559
229.39468
247.89647
256.89359
259.82871
250.07032
241.03474
224.44341
211.63031
200.07853
203.99985
204.23173
209.46917
195.73487
195.91355
215.04261
229.59995
231.11152
215.35966
240.87571
268.64768
279.16038
327.78258
322.07707
266.89641
240.18227
273.72517
276.33491
244.85167
220.21264
202.31885
187.47117
176.80639
167.59916
159.04556
150.48123
153.60835
159.45933
160.86279
157.57155
155.29814
156.06122
155.36423
152.8412
154.16234
157.73438
169.31311
164.46166
163.06248
164.76465
168.02822
176.76234
171.65201
171.23993
179.14599
173.72281
179.50258
187.61203
201.79707
190.94266
190.18882
188.32416
171.8874
161.46183
188.29634
221.90918
202.73434
202.9923
219.52971
242.48974
219.57237
220.22561
202.31897
190.18864
190.94849
179.50194
179.13939
187.4631
187.61922
201.81745
202.35345
190.17494
173.64949
179.21711
182.72673
176.87818
167.73668
168.37128
165.22921
163.16336
164.62804
171.23733
171.67976
176.84909
176.74186
168.23352
168.83495
165.918
164.44216
165.35815
171.45681
171.94339
176.78557
185.3767
188.39312
191.45051
194.09024
196.67735
198.77676
200.65811
201.91615
202.6747
202.71435
202.0295
200.80502
200.53921
198.71509
209.02357
209.87573
212.49972
211.47845
213.27335
201.6916
202.35124
214.20258
215.43407
214.43696
229.72454
226.58076
222.56329
221.14564
224.82974
242.01744
236.03068
238.28303
244.92457
250.61356
247.11669
227.6928
229.2073
231.38236
253.76586
249.96037
283.05295
276.6451
266.07799
255.32869
258.91672
270.96665
311.59859
287.48439
281.83323
303.3611
329.74817
340.43472
282.76611
288.63508
296.29683
370.32323
349.64212
357.26341
363.40981
384.5937
389.20049
311.72739
309.94027
313.87719
302.83278
305.58899
367.56954
362.91508
388.45786
384.74818
379.63974
305.40781
294.51072
259.06448
235.395
237.48444
262.14104
254.34925
233.10185
216.87527
213.51188
201.28107
200.94303
212.49789
226.31786
231.26083
251.6565
243.53581
245.75574
227.85899
222.31184
209.73034
198.7691
199.78008
196.5415
196.7757
207.0856
206.45204
210.65143
223.53592
217.70923
218.2654
232.05552
230.78507
239.04216
237.3504
235.60872
221.07556
208.90932
198.55749
195.57084
195.73417
205.71704
205.06702
201.0741
192.69941
192.73777
193.45996
193.54687
189.92031
189.86988
197.74343
202.13589
202.73805
198.03888
206.50642
212.44057
211.9674
206.34745
215.91256
223.10831
224.27599
216.52394
227.29822
237.08809
247.6508
260.26039
274.37787
290.32729
287.47455
272.07961
304.23725
331.79084
337.31372
308.03974
351.16979
402.01539
465.71599
465.9417
533.07376
851.52453
824.36845
641.4634
648.73628
654.79208
462.55509
358.33378
298.88514
283.91905
280.06847
265.92897
269.06233
300.30624
327.24129
321.99062
352.68471
457.30886
535.13873
549.39678
485.25992
407.40843
349.77452
412.42774
417.69149
527.52942
412.14257
486.45497
546.94045
915.43614
711.0967
730.53127
526.66821
523.98499
400.93257
392.39321
336.62619
397.75485
337.10193
330.44235
296.1892
274.5775
258.71617
276.32612
259.9771
276.14983
259.54065
261.39062
263.34729
280.09015
261.45991
259.39893
277.4297
274.87236
257.43868
271.72852
253.0851
237.5198
239.07108
255.21255
257.43351
271.74381
268.58667
248.25493
246.08959
244.0545
236.08181
251.09345
262.53685
265.48096
290.04081
294.37083
274.59954
277.54108
301.65063
297.86085
326.92678
332.49667
298.67152
302.83225
337.75015
342.61998
394.77622
339.26923
297.83332
267.42861
264.54837
293.89795
317.51006
277.50239
280.98731
322.26638
384.98774
379.11711
334.14261
388.73108
475.33744
480.79978
621.8588
444.72451
349.08919
294.05469
290.13682
343.99055
365.14204
298.92847
261.01626
257.92065
253.94525
247.71122
240.63954
224.42257
223.06967
238.60769
245.18269
227.15615
228.79209
232.33486
230.45268
215.1414
202.88913
203.66987
204.04606
204.06527
190.54266
176.04677
176.04393
176.46884
189.89153
201.82067
201.556
212.93372
213.9495
215.01719
202.53942
202.24422
213.92243
228.51497
226.87571
224.08386
220.56517
234.78891
229.08448
227.81554
222.4198
216.93217
211.32306
205.51515
199.40776
188.81912
174.00912
164.72343
158.48395
157.97554
154.76857
158.50358
158.04336
158.50306
160.88591
159.78965
156.26998
158.4859
160.13617
166.10717
164.72858
165.95239
161.46845
163.03175
166.8934
166.63909
172.32711
171.72282
176.77506
168.71815
169.41976
176.90022
176.93049
172.25913
172.80214
167.5335
170.11907
169.44715
171.73925
165.5387
158.04942
161.37144
166.17797
163.86747
161.23854
162.97931
168.08303
166.59646
167.68627
168.47998
173.32722
172.69053
177.12526
170.14715
170.94722
177.31045
177.38883
173.37911
168.89982
165.51903
169.84362
174.00545
172.08919
171.17175
173.25483
167.72691
174.22186
181.07306
181.11082
173.07077
172.31648
172.35153
181.12891
177.07283
181.70654
179.25556
174.6258
166.10327
160.13403
163.02462
161.46664
165.94638
166.63244
169.40799
168.70868
176.76193
171.71422
172.31868
176.88374
176.91394
169.4346
166.88762
167.52639
170.1078
177.05628
172.79437
172.25105
178.97521
179.18878
178.89342
181.84024
182.0012
185.31265
185.14452
191.43465
187.16479
187.31881
191.30833
191.08668
184.97315
181.80416
181.96362
185.14032
190.97212
187.13093
187.00333
192.61088
189.25268
188.81845
192.87315
192.8557
197.93539
198.1853
205.55514
199.42896
199.4998
205.21989
204.84611
197.66639
197.43766
192.56453
199.052
199.02274
205.59766
199.73441
189.2565
179.19668
178.90181
181.84936
182.01541
187.32779
187.16703
191.43388
185.15247
185.32952
191.31811
191.10396
187.01637
181.82144
181.98231
187.14844
190.99367
185.16371
184.99488
187.8073
181.22377
171.78633
164.08887
171.16223
181.27179
184.99882
173.4174
174.0668
184.82218
184.60743
181.1366
187.55183
184.82538
181.72165
178.98319
188.41505
188.83357
191.9818
186.63641
186.92898
181.88954
184.99996
190.68041
190.77792
186.77085
192.19583
192.57776
192.61686
192.85534
192.86488
198.16661
197.93464
205.1994
199.48984
199.01394
199.05253
204.55199
197.45409
197.67696
204.83991
212.75357
205.58779
206.09216
199.91239
206.22006
206.11199
213.24369
213.70312
222.72586
214.26925
214.23445
222.14154
221.53113
212.77345
212.38075
204.5501
204.19373
197.17119
190.75591
184.8007
181.70321
181.8727
184.97991
190.66372
186.91659
186.75433
192.18533
188.41172
188.82845
179.24788
181.69312
181.8516
184.8431
184.67335
190.47246
186.62556
186.75441
190.37597
196.55191
191.93821
191.97338
192.19246
196.97742
203.94323
198.55585
198.45183
204.93641
198.97543
198.86476
204.44412
198.12439
198.16963
203.38424
203.63691
196.7491
201.05927
193.96771
187.31168
181.10719
172.33438
165.52797
158.04541
161.36662
159.78865
161.23531
163.85906
167.67819
166.59032
168.47332
170.93181
170.13582
177.10823
172.68369
173.32309
177.28748
174.67512
179.01141
179.33028
181.64298
181.79256
181.61419
184.53723
184.71754
190.09581
186.56487
186.40318
190.17906
196.30902
191.58387
187.99812
188.42292
191.39219
186.30322
186.42181
181.82072
184.61392
184.44631
189.91442
189.8038
195.69149
191.34879
197.33144
197.30451
197.71223
191.60002
196.13053
202.8335
203.06652
197.60633
203.86432
198.16487
188.00394
179.02104
179.34848
188.43016
191.41393
186.32134
181.66163
181.8012
181.62312
181.86286
186.76333
190.38874
184.85688
184.69049
190.48496
196.76297
196.99225
192.20157
198.55795
198.45289
204.20401
197.19065
201.64259
194.39013
194.63471
187.90188
190.73854
190.62561
191.10626
188.16671
188.07171
195.29941
195.08805
198.61094
198.89585
190.99943
193.49705
193.52277
201.86647
202.24197
205.29886
195.90642
195.92486
204.82349
204.31346
201.45154
198.27458
194.83014
202.2607
202.59839
202.94112
207.44579
206.98791
216.30292
210.85355
210.41057
210.00293
201.95358
206.16073
198.02514
201.13266
193.06206
193.01277
195.29725
195.35042
203.92335
213.66406
210.08227
210.57595
206.55582
215.727
215.20363
220.14803
220.82322
221.57699
211.12935
211.72097
215.74798
214.98148
226.6849
225.68006
214.28602
217.59734
206.79779
197.10487
187.47433
175.56779
165.86346
167.30325
175.32652
173.85929
174.49658
184.49912
186.97207
175.91708
176.80033
176.20749
176.50664
175.91709
174.97314
187.77642
189.29329
188.91255
188.53515
187.16412
196.48371
194.76718
192.58059
190.2769
190.4029
187.65591
194.21459
197.4937
197.71714
205.78259
205.43218
201.36165
209.24963
203.95504
203.64743
198.12533
198.17586
191.94612
196.56392
203.39684
210.9593
204.38309
204.44318
204.8886
204.93213
205.48978
213.4288
213.41747
214.22248
214.24219
206.19425
213.64101
213.21193
222.09284
222.6488
232.63556
222.4458
222.06162
231.93084
232.71524
243.87102
242.83834
231.88425
231.16502
221.3439
213.42718
213.4343
205.49953
221.06016
230.57456
221.05373
230.56417
221.04773
212.37943
211.96279
211.63633
220.15529
212.69224
212.62295
220.54077
229.97771
220.40633
212.62704
212.6921
204.89573
211.63118
211.95924
220.53686
220.15076
219.70004
211.26553
210.94788
204.38058
212.05662
211.99573
219.6081
211.99292
212.05992
219.35737
219.70844
211.27142
217.60178
208.89592
201.07708
193.98441
187.33247
187.43204
193.81764
197.00013
190.09704
189.97246
197.20883
205.08684
204.76076
200.80834
208.5531
213.42892
213.83945
214.26721
214.71479
209.61235
218.47134
218.95976
219.47074
220.03799
220.65516
231.11755
230.31975
238.75892
226.8036
227.64475
239.88137
253.96017
242.89941
241.85391
254.8834
256.27303
257.82554
272.47509
290.51791
269.01717
285.83053
315.45333
321.18038
294.11725
320.81284
295.47108
298.80293
278.65313
281.25925
283.94148
307.337
310.89445
338.69265
334.26983
305.71355
334.94356
339.46207
343.9501
347.67223
386.98725
348.69667
390.31984
384.76092
349.13265
402.41048
449.53523
458.13045
513.5297
436.13312
430.43801
381.3543
439.92796
390.6429
396.33794
448.50079
507.83637
499.07386
583.97598
504.54039
496.53075
443.18944
397.17501
344.56128
339.89526
391.40726
436.20067
373.60209
379.26662
423.61959
375.91841
370.34713
426.74128
379.52667
385.27713
433.6128
491.16398
482.66927
416.62274
487.87487
564.25047
574.67439
724.62262
628.19214
559.82625
490.30999
494.6075
669.671
801.16703
565.46308
569.4375
801.80306
1242.673
1316.7677
1022.6535
1513.7813
2153.2308
1919.6441
2225.9568
1393.3925
907.05369
641.62672
636.40706
904.60266
1032.8045
734.29734
744.03006
596.93255
735.57657
626.50207
548.31214
472.48418
469.34605
543.65321
752.79702
615.14157
614.90221
755.19291
872.26848
869.5068
621.30766
725.88911
1006.4357
1013.3028
1473.9179
1333.1817
1159.0174
869.99974
907.43412
616.9662
448.05811
500.97324
373.65402
306.59274
303.00262
369.96838
501.31494
499.64372
439.80546
624.31919
827.73191
802.90471
777.11045
758.0716
496.37501
378.33936
379.43295
374.90633
307.13893
266.86736
240.51514
221.63597
223.07221
221.62512
206.79971
206.2328
220.30129
218.9616
220.23714
218.94525
205.33555
204.50139
204.92857
203.44882
189.51525
175.5276
176.66484
175.07935
173.19758
162.47113
163.735
165.74225
176.47006
189.89996
188.27878
175.44949
175.00812
188.80001
185.67429
173.29611
173.74511
186.17387
181.8634
171.08785
170.54193
167.74732
159.46112
153.60804
160.86533
168.24333
170.857
171.3771
173.82382
185.34391
181.4367
181.58703
176.76286
176.87168
168.38184
165.23523
163.17049
164.6354
164.77479
168.04366
159.04772
157.73305
169.33979
167.61069
176.83482
176.78785
171.67876
163.07877
164.47502
171.2731
179.23009
187.55379
188.50499
202.56931
202.01775
187.68993
179.57164
173.81073
190.41078
191.13021
203.42216
220.11754
220.86814
223.08271
246.58287
244.01813
220.6457
221.49044
203.24291
190.56478
188.86883
172.014
161.48835
152.84406
154.16427
155.36474
156.06007
155.2982
157.56958
164.4453
165.36328
165.92222
168.84636
176.80682
171.9548
171.46696
171.69416
171.25626
176.90281
186.53004
189.96424
193.57226
196.76509
200.00289
202.70886
205.15471
204.69022
217.78995
219.0656
215.44399
214.45522
202.29018
201.21226
200.91138
203.1019
215.46861
217.73933
234.56567
236.60048
238.58985
264.19064
261.27975
257.50164
260.25453
236.45844
238.29638
239.58834
241.89383
269.90215
265.57674
262.8212
255.80369
234.23371
235.437
258.48572
249.53181
230.06707
229.11861
247.52179
245.53864
253.49677
232.58404
216.5755
213.39428
212.44109
226.24184
230.89147
251.04176
243.47069
241.36562
248.49569
254.6033
258.19082
234.55415
234.43825
232.41161
216.29377
216.33738
203.69254
202.94878
203.30224
216.42763
217.5702
215.2674
214.05864
215.05957
202.55417
202.25881
213.95494
213.02473
201.5966
201.87163
200.66475
201.68867
201.95917
214.2881
213.25344
210.54778
199.69959
199.92479