/*--------------------------------*- C++ -*----------------------------------*\
  =========                 |
  \\      /  F ield         | OpenFOAM: The Open Source CFD Toolbox
   \\    /   O peration     | Website:  https://openfoam.org
    \\  /    A nd           | Version:  7
     \\/     M anipulation  |
\*---------------------------------------------------------------------------*/
FoamFile
{
    version     2.0;
    format      ascii;
    class       volScalarField;
    location    "240";
    object      p;
}
// * * * * * * * * * * * * * * * * * * * * * * * * * * * * * * * * * * * * * //

dimensions      [1 -1 -2 0 0 0 0];

internalField   nonuniform List<scalar> 
25278
(
101315.65
101314.41
101315.82
101315.71
101318.71
101313.95
101314.72
101315.57
101315.07
101310.27
101312.02
101313.52
101314.28
101315.91
101323.38
101315.84
101314.51
101321
101324.59
101318.41
101313.83
101314.01
101314.4
101311.97
101307.79
101311.74
101314.19
101312.13
101317.85
101311.2
101308.8
101314.94
101309.38
101312.85
101306.51
101313.47
101308.96
101305.18
101309.06
101303.08
101306
101301.21
101302.25
101294.53
101300.19
101303.08
101310
101307.93
101301.8
101308.98
101308.96
101318.58
101313.83
101311.74
101313.32
101306.77
101305.25
101311.37
101303.37
101306.9
101301.53
101301.52
101302.22
101306.74
101315.71
101315.01
101306.43
101302.5
101306.99
101308.38
101324.07
101313.1
101315.81
101309.24
101315.35
101306.05
101306.41
101311.03
101313.67
101318.66
101322.34
101323.14
101320.77
101324.35
101318.51
101323.04
101325.76
101331.88
101330.07
101329.63
101324
101323.73
101330.34
101332.49
101333.68
101323.49
101329.87
101329.04
101321.58
101322
101330.11
101338
101335.08
101321.68
101322.32
101331.35
101324.27
101332.01
101330.74
101336.95
101335.32
101326.79
101342.86
101356.49
101337.39
101334.71
101360.87
101329.74
101338.5
101337.94
101323.63
101318.19
101318.52
101329.99
101332.3
101329.95
101336.27
101335.14
101325.36
101322.87
101322.22
101318.34
101320.25
101322.88
101329.97
101331.61
101323.26
101326.33
101342.11
101330.78
101336.01
101355.83
101359.9
101328.71
101321.32
101330.79
101329.29
101322.5
101333.2
101322.52
101322.86
101329.87
101323.52
101329.08
101320.13
101320.9
101320.3
101334.19
101333.65
101315.76
101337.01
101343.39
101317.76
101335.2
101322.72
101331.72
101339.11
101329.96
101359.13
101356.17
101337.99
101330.61
101343.34
101343.07
101419.73
101378.15
101343.22
101339.04
101379.15
101429.08
101342.23
101341.54
101327.84
101335.84
101337.49
101329.61
101320.69
101321.21
101332.48
101363.9
101358.3
101339.11
101324.06
101330.97
101330.16
101327.44
101348.48
101317.22
101441.17
101411.17
101314.69
101344.99
101326.75
101318.03
101318.91
101318
101312.78
101317.72
101314.31
101307.94
101313.29
101309.02
101305.78
101300.89
101308.85
101304.36
101308.27
101302.67
101301.83
101293.86
101294.74
101299.9
101306.15
101309.56
101306.15
101300.05
101296.01
101302.21
101302.09
101303.15
101302.18
101293.76
101290.16
101297.9
101299.27
101300.79
101300.94
101306.95
101313.16
101317.97
101308.34
101312.86
101311.3
101306.52
101301.04
101306.35
101304.01
101310.12
101302.65
101300.91
101301.25
101306
101307.68
101317.55
101312.95
101314.88
101307.61
101305.58
101313.41
101304.85
101301.32
101290.65
101291.16
101291.3
101292.62
101287.15
101297.99
101295.31
101298.46
101300.29
101299.38
101297.68
101299.8
101291.62
101292.6
101295.59
101298.95
101294.68
101289.42
101287.71
101288.48
101284.21
101293.63
101291.22
101288.61
101280.8
101283.93
101279.6
101277.67
101283.5
101285.94
101291.35
101300.27
101306.42
101306.42
101300.11
101303.34
101302.39
101298.9
101290.87
101294.23
101295.16
101297.21
101295.97
101292.62
101292.55
101300.49
101301.95
101300.16
101305.18
101297.7
101305.44
101298.73
101299.22
101298.37
101301.7
101297.71
101305.09
101315.12
101318.74
101305.5
101298.87
101308.95
101299.95
101299.26
101298.54
101312.12
101318.22
101324.72
101311.91
101296.04
101297.76
101289.02
101279.36
101296.47
101282.15
101296.5
101288.03
101287.34
101289.86
101291.29
101291.34
101286.75
101289.38
101287.08
101294.29
101287.95
101283.2
101287.46
101281.78
101282.73
101294.2
101286.43
101284.67
101283.24
101281.95
101278.18
101285.81
101274.54
101273.89
101281.15
101284.81
101280.41
101286.59
101281.33
101290.13
101289.79
101287.97
101297.09
101292.46
101283.21
101287.76
101281.73
101292.62
101300.51
101301.84
101287.98
101287.23
101289.69
101290.56
101290.54
101286.62
101289.39
101296.5
101294.49
101281.31
101282.32
101280.82
101285.04
101287.17
101281.07
101283
101283.89
101285.5
101294.2
101282.53
101281.68
101278.19
101285.99
101274.66
101274.12
101275.99
101273.48
101268.27
101266.28
101275.5
101282.48
101289
101279.39
101289.54
101281.33
101276.26
101277.83
101277.6
101283.38
101275.85
101284.47
101287.17
101283.35
101275.33
101276.34
101277.82
101272.09
101278.06
101273.53
101280.18
101277.81
101273.62
101272.54
101266.91
101272.68
101264.84
101275.6
101266.79
101265.18
101270.81
101266.72
101272.86
101274.93
101283.87
101274.56
101275.51
101279.68
101288.72
101288.39
101295.8
101298.62
101300.17
101315.14
101317.79
101308.31
101299.41
101299.96
101299.86
101312.52
101299.11
101321.36
101328.33
101322.39
101318.28
101297.1
101299.28
101299.96
101296.28
101291.41
101332.52
101354.37
101313.17
101322.81
101327.24
101321.44
101302.13
101301.74
101303.28
101304.39
101307.83
101348.56
101348.42
101300.94
101298.15
101305.44
101306.82
101308.23
101304.06
101296.41
101300.9
101288.16
101292.95
101287.8
101291.54
101287.04
101296.52
101290.43
101275.12
101279.53
101274.96
101279.06
101281.76
101273.55
101282.13
101278.31
101281.76
101278.72
101268.2
101273.27
101275.78
101281.05
101280.12
101282.27
101288.46
101287.93
101298.57
101301.26
101299.83
101296.78
101286
101292.25
101293.31
101298.95
101300.37
101300.06
101299.4
101299.18
101308.25
101298.45
101313.13
101302.74
101302.14
101302.71
101322.62
101307.67
101303.58
101304.55
101304.81
101298.49
101298.61
101328.91
101322.07
101320.55
101288.69
101318.41
101296.02
101293.54
101301.22
101331.67
101356.25
101347.55
101295.91
101290.61
101308.4
101276.23
101303.45
101281.39
101298.12
101287.92
101301.39
101292.39
101300.97
101301.11
101299.79
101300.97
101303.31
101296.33
101299.33
101296.84
101293.7
101288.64
101290.03
101295.36
101289.6
101285.67
101294.66
101292.35
101290.31
101293.23
101282.44
101282.23
101285
101279.71
101278.63
101283.48
101286.23
101289.34
101279.49
101289.63
101284.6
101278.12
101281.75
101276.47
101278.23
101273.76
101277.54
101275.56
101282.58
101273.42
101275.78
101284.07
101287.47
101286.08
101277.11
101277.07
101278.77
101272.86
101278.21
101275.93
101264.88
101272.73
101280.1
101272.81
101266.94
101268.19
101266.12
101268.73
101270.69
101270.68
101261.44
101270.68
101259.75
101262.28
101254.23
101254.05
101264.2
101265.3
101274.84
101278.65
101274.36
101280.55
101273.12
101279.51
101273.45
101281.18
101265.87
101271.71
101255.32
101262.2
101266.18
101273.16
101271.15
101274.2
101282
101285.74
101288.12
101295.85
101289.57
101291.99
101285.48
101290.72
101292.23
101289.55
101284.22
101288.01
101280.19
101282.47
101283.27
101288.81
101279.78
101277.86
101275.81
101285.82
101286.49
101293.96
101298.9
101293.41
101288.98
101286.69
101286.57
101289.27
101283.83
101289.58
101292.7
101282.77
101282.15
101279.77
101279.25
101282.04
101278.13
101286.34
101291.47
101278.46
101276.62
101286.78
101270.26
101283.65
101274.03
101273.76
101258.38
101266.99
101271.06
101277.33
101272.84
101275.76
101269.75
101266.54
101262.67
101270.14
101276.32
101279.4
101277.7
101281.88
101280.92
101274.2
101267.86
101274.25
101266.72
101269.37
101264.4
101273.22
101292.57
101284.02
101274.4
101283.57
101296.75
101289.21
101301.09
101292.43
101301.16
101296.85
101296.39
101284.3
101284.74
101280.09
101289.67
101291.71
101291.34
101289.17
101279.11
101278.58
101279.83
101266.6
101267.29
101270.67
101271.81
101275.33
101284.2
101280.5
101274.74
101273.41
101275.73
101274.98
101272.22
101270.78
101273.57
101275.16
101282.92
101281.9
101272.23
101268.56
101279.15
101277.6
101265.61
101264.48
101267.33
101269.01
101280.41
101276.27
101271.95
101276.71
101266.42
101268.71
101270.88
101264.24
101267.55
101270.85
101269.25
101265.33
101256.84
101261.96
101264.18
101260.08
101255.38
101250.98
101261.16
101257.37
101261.17
101251.48
101259.99
101255.96
101265.36
101272.5
101283.25
101285.55
101292.71
101289.83
101297.73
101285.18
101286.52
101286
101277.41
101276.63
101282.97
101280.04
101271.78
101270.78
101281.34
101285.01
101291.77
101290.99
101300.67
101286.93
101286.5
101286.24
101276.5
101276.41
101284.38
101280.42
101270.68
101262.51
101262.61
101264.35
101272.99
101273.86
101281.32
101281.63
101294.31
101276.02
101279.18
101277.88
101265.49
101264.49
101255.18
101252.15
101263.59
101272.69
101281.15
101281.49
101297.59
101279.19
101278.79
101278.11
101269.62
101271.41
101270.18
101272.81
101286.32
101263.16
101280.31
101268.56
101269.26
101250.39
101261.25
101249.78
101253.37
101259
101263.66
101255.55
101261.66
101254.43
101263.82
101264.57
101278.99
101268.62
101262.15
101266.63
101265.71
101271.01
101262.58
101254.84
101247.04
101236.69
101246.22
101255.74
101254.55
101269.15
101270.88
101260.33
101251.83
101259.95
101262.59
101254.63
101246.58
101241.9
101253.02
101259.9
101251.47
101248.96
101257.88
101265.49
101271.33
101267.12
101268.79
101264.86
101263.32
101254.78
101260.09
101261.9
101267.33
101259.59
101268.52
101263.64
101250.43
101248.46
101250.92
101261.7
101268.52
101264.03
101251.39
101259.21
101257.76
101249.04
101239.14
101241.37
101252.05
101241.51
101251.49
101242.61
101253.08
101251.14
101253.47
101257.07
101251.34
101246.51
101233.93
101242.92
101247.42
101240.24
101250.09
101242.44
101254.61
101246.75
101252.2
101258.71
101263.41
101268.68
101288.07
101279.92
101266.09
101263.03
101264.66
101278.47
101258.02
101272.05
101289.27
101259.86
101259.2
101276.88
101243.85
101254.06
101254.2
101234.06
101241.78
101250.13
101237.01
101246.84
101239.31
101227.7
101213.18
101228.47
101222.86
101238.17
101224.41
101239.22
101244.5
101238.16
101231.08
101245.92
101242.69
101254.65
101258.83
101260.22
101255.87
101243.37
101249.79
101256.17
101245.69
101244.02
101230.55
101240.24
101227.64
101239.06
101241.58
101230.36
101226.75
101229.07
101214.72
101230.52
101217.33
101232.33
101220.47
101237.21
101235.38
101248.57
101226.95
101228.04
101207.51
101207.64
101218.57
101222.41
101230.74
101213.58
101227.38
101237.24
101230.72
101218.71
101200.89
101216.21
101224.81
101212.3
101193.44
101178.27
101202.05
101190.17
101213.69
101194.47
101218.91
101238.9
101252.88
101263.38
101276.91
101273.47
101270.72
101274.12
101261.73
101265.16
101266.36
101257.72
101256.02
101250.39
101236.25
101244.41
101246
101229.89
101243.15
101259.1
101258.06
101242.31
101227.86
101227.94
101246.22
101264.85
101280.34
101300.43
101294.8
101264.44
101266.94
101244.82
101240.7
101256.11
101236.49
101236.62
101252.35
101263.61
101272.64
101273.26
101276.85
101284.29
101284.71
101296.43
101301.31
101308.08
101313.98
101321.15
101324.97
101329.23
101328.8
101330.94
101330.84
101340.71
101332.34
101321.9
101332.23
101363.68
101358.81
101335.33
101338.91
101336.13
101323.04
101321.54
101321.09
101321.3
101322.26
101337.12
101315.11
101351.25
101348.05
101328.16
101336.77
101380.68
101425.74
101333.59
101362.4
101357.59
101339.36
101330.9
101324.73
101336.93
101330.92
101334.71
101327.19
101334.42
101382.11
101432.86
101330.75
101316.62
101335.63
101338.01
101356.98
101361.49
101331.7
101321.29
101323.45
101338.46
101329.1
101324.99
101341.66
101307.64
101458.71
101434.35
101330.81
101351.9
101329.75
101315.01
101318.88
101309.12
101309.28
101318.59
101311.85
101311.51
101316.13
101315.17
101306.53
101307.11
101302.73
101303.05
101307.41
101308.85
101303.91
101302.23
101305.59
101307.19
101313.66
101307.55
101302.29
101294.42
101301.86
101302.3
101301.39
101299.96
101289.26
101291.44
101292.15
101290.23
101297.27
101301.59
101301.01
101292.74
101293.12
101285.59
101281.05
101279.53
101278.98
101280.74
101283.6
101293.74
101290.93
101297.23
101300.28
101293.23
101287.16
101289.19
101299.12
101293.11
101295.23
101286.85
101286.31
101283.49
101273.43
101274.67
101271.59
101272.41
101270.99
101270.93
101271.66
101274.25
101273.44
101259.16
101259.55
101263.59
101263.33
101252.82
101253.24
101246.35
101245.63
101228.4
101228.96
101239.57
101239.38
101217.35
101218.23
101228.02
101215.35
101194.02
101209.61
101209.77
101180.3
101205.25
101184.02
101206.56
101227.28
101241.68
101234.91
101253.18
101301.5
101287.2
101254.96
101245.46
101244.6
101270.81
101236.23
101261.08
101236.35
101249.88
101263.69
101264.39
101270.34
101301.59
101269.75
101298.39
101249.09
101232.67
101236.36
101293.63
101341.91
101279.28
101319.13
101272.07
101294.15
101277.44
101291.39
101278.29
101288.37
101284.08
101274.91
101279.3
101282.47
101286.04
101288.06
101290.69
101285.5
101291
101288.76
101287.94
101280.08
101282.23
101280.37
101276.02
101270.25
101274.71
101271.81
101277.64
101284.58
101289.66
101292.05
101286.74
101279.2
101282.71
101280.37
101283.5
101286.64
101293.93
101298.38
101289.39
101283.98
101292.05
101288
101286.73
101277.69
101279.49
101286.4
101281.6
101282.23
101277.7
101273.17
101267.28
101263.98
101270.92
101275.86
101285.75
101284.97
101283.33
101295.91
101294.53
101299.18
101299.42
101299.15
101306.56
101313.63
101315.36
101315.35
101314.54
101315.37
101313.56
101313.13
101312.9
101317.51
101307.56
101313.77
101311.91
101305.56
101300.64
101304.98
101305.02
101314.06
101305.86
101299.91
101299.08
101303.33
101307.58
101317.33
101309.75
101310.02
101301.11
101304.38
101312.13
101305.16
101298.93
101290.35
101289.45
101289.84
101290.16
101281.75
101282.39
101276.48
101278.15
101288.43
101289.97
101277.06
101280.44
101270.08
101270.21
101278.99
101273.67
101273.09
101271.66
101269.84
101270.87
101274.12
101282.15
101279.74
101277.96
101267.01
101266.35
101268.56
101279.96
101276.16
101270.75
101268.46
101270.67
101279.69
101280.78
101285.56
101292.82
101300.46
101289.46
101286.13
101286.51
101288.6
101295.79
101284.95
101294.05
101296.38
101289.8
101292.49
101285.08
101276.34
101281.09
101282.94
101275.02
101277
101270.6
101268.19
101261.49
101268.74
101274.17
101272.73
101283.34
101278.58
101281.59
101276.53
101277.62
101275.15
101282.52
101279.69
101285.37
101277.96
101280.99
101282.71
101274.11
101265.76
101266.95
101258.41
101267.66
101266.49
101257.21
101254.81
101264.5
101270.62
101271.69
101264.81
101266.37
101273.47
101276.47
101274.88
101265.85
101263.25
101265.25
101274.75
101263.7
101254.48
101259.06
101263.77
101267.99
101261.27
101259.89
101262.14
101269.17
101271
101264.59
101260.71
101267.74
101265.25
101257.18
101254.58
101262.78
101258.46
101261.46
101264.89
101256.58
101251.79
101246.98
101257.8
101261.95
101252.89
101242.7
101247.13
101252.74
101257.89
101264.55
101271.94
101264.32
101256.54
101251.64
101260.41
101268.28
101277.83
101275.09
101272.06
101281.88
101267.81
101269.68
101265.32
101264.49
101259.78
101273.61
101290.37
101281.95
101270.89
101275.29
101275.31
101272.1
101266.89
101280.83
101263.34
101263.13
101257.28
101258.11
101248.72
101274.91
101303.25
101283.61
101269.13
101273.83
101275.3
101271.53
101269.23
101292.09
101262.1
101259.64
101251.33
101253.17
101243.96
101267.7
101310.52
101280.83
101269.01
101274.02
101279.88
101282.25
101285.96
101291.68
101300.59
101287.91
101285.83
101298.19
101289.23
101286.05
101275.73
101276.32
101284.84
101281.21
101278.37
101282.54
101283.41
101290.01
101299.33
101301.07
101321.43
101324.63
101307.62
101302.46
101300.06
101299.64
101321.34
101309.49
101351.28
101348.15
101342.78
101298.91
101290.84
101304.5
101301.81
101297.92
101325
101285.27
101319.76
101295.92
101311.73
101316.47
101313.88
101297.5
101297.41
101296.51
101295.91
101304.84
101326.76
101321.12
101313.83
101291.96
101290.45
101295.39
101294.92
101283.46
101288.6
101284.6
101296.59
101294.03
101301.59
101302.35
101302.76
101280.23
101283.4
101297.51
101296.72
101282.35
101280.6
101265.57
101265.96
101274.11
101273.61
101263.94
101270.04
101262.34
101263.19
101271.42
101269.19
101271.94
101260.98
101262.98
101259.86
101265.82
101273.95
101259.91
101257.02
101270.37
101261.51
101257.36
101246.58
101249.88
101254.26
101242.71
101248.53
101248.82
101255.35
101245.33
101252.72
101251.29
101254.08
101243.68
101248.38
101241.8
101235.26
101247.65
101244.48
101231.14
101240.56
101242.48
101232.15
101217.63
101230.53
101228.21
101231.78
101238.45
101248
101259.72
101250.7
101237.68
101229.33
101241.5
101254.19
101259.9
101257.16
101266.52
101255.88
101245.27
101241.32
101252.93
101264.01
101253.55
101246.48
101250.36
101232.88
101217.05
101237.34
101243.37
101236.21
101244.52
101258.17
101254.62
101253.05
101255.66
101279.61
101296.12
101358.79
101288.5
101331.9
101291.96
101283.21
101293.24
101335.26
101261.29
101367.7
101444.21
101309.47
101306.69
101383.47
101249.79
101281.77
101291.97
101383.5
101304.51
101312.07
101439.12
101315.32
101362.04
101257.29
101392.5
101318.09
101292.77
101438.71
101496.71
101654.34
101465.98
101424.65
101446.61
101200.23
101223.85
101502.68
101267.83
101397.3
101304.01
101351.25
101309.43
101323.55
101303.7
101302.87
101324.49
101313.19
101303.51
101305.64
101309.18
101305.58
101355.78
101329.07
101301.12
101300.72
101302.38
101271.69
101302.81
101279.77
101298.03
101287.16
101300.47
101290.93
101292.41
101302.07
101288.63
101286.67
101287.04
101282.22
101281.81
101298.7
101282.35
101278.84
101280
101264.72
101253.8
101263.33
101271.24
101280.38
101282.03
101285.65
101277.11
101271.44
101273.07
101280.71
101283.49
101290.34
101297.81
101301.93
101293.6
101286.98
101287.48
101285.92
101290.46
101297.68
101294.67
101282.87
101282.61
101279.32
101280.72
101277.12
101285.13
101276.48
101290.67
101285.28
101294.18
101300.98
101313.34
101317.75
101316.22
101301.3
101300.15
101300.47
101299.32
101308.79
101328.93
101321.01
101320.28
101290.08
101295.28
101299.79
101299.62
101296.86
101317.74
101297.08
101313.05
101300.04
101310.11
101304.02
101309.68
101309.21
101314.19
101310.18
101303.67
101303.76
101306.64
101307.99
101306.79
101311.44
101312.39
101318
101315.31
101310.07
101313.73
101307.02
101309.24
101305.77
101303.07
101302.16
101306.79
101315.77
101306.57
101305.81
101301.23
101300.32
101298.78
101306.27
101319.67
101318.11
101313.12
101318.8
101325.61
101318.84
101302.49
101299.64
101298.95
101299.52
101312.35
101299.39
101306.56
101298.8
101305.58
101315.53
101309.19
101300.58
101300.04
101284.29
101289.52
101296.78
101298.12
101302.49
101295.69
101300.93
101299.55
101302.79
101300.78
101303.83
101296.33
101295.33
101292.11
101289.88
101294.52
101297.45
101299.73
101300.7
101296.94
101291.19
101296.15
101290.68
101278.83
101276.81
101273.62
101272.25
101268.96
101268.02
101265.23
101264.67
101263.5
101263.26
101263.83
101264.08
101273.96
101275.59
101262.18
101261.19
101259.17
101259.86
101257.71
101273.02
101272.62
101257.27
101256.56
101256.88
101242.51
101246.77
101249.86
101251.1
101247.4
101231.27
101236.38
101235.41
101231.78
101224.03
101225.72
101243.85
101243.44
101242.14
101225
101227.45
101199.08
101194.02
101208.46
101216.99
101214.42
101208.91
101187.53
101188.43
101191.69
101184.42
101163.97
101150.38
101189.16
101199.05
101196.39
101160.95
101164.32
101192.82
101217.83
101218.75
101240.21
101255.96
101257.98
101272.4
101270.77
101304.34
101277.66
101265.25
101267.83
101243.84
101223.28
101239.22
101238.53
101253.52
101263.51
101273.43
101264.65
101266.39
101274.27
101277.74
101278.67
101286.49
101284.26
101273.86
101267.02
101266
101257.65
101258.28
101267.4
101275.26
101275.89
101279.2
101283.02
101290.03
101294.9
101299.77
101290.67
101287.83
101287.9
101283.67
101284.3
101293.92
101285.67
101280.9
101281.43
101268.89
101262.55
101269.77
101275.81
101282.14
101286.88
101287.56
101280.92
101277.39
101279.48
101284.73
101283.99
101290.91
101293.26
101299.8
101296.71
101289.47
101289.3
101287.21
101292.09
101293.51
101290.93
101285.75
101287.2
101283.6
101283.59
101280.3
101287.85
101292.84
101288.48
101293.96
101287.93
101301.53
101295.42
101273.62
101272.19
101267.24
101269.88
101266.51
101282.25
101302.92
101289.1
101310.34
101252.47
101255.49
101242.59
101243.14
101263.01
101239.59
101201.97
101229.58
101243.08
101257.58
101260.58
101245.64
101246.09
101261.4
101249.56
101248.66
101233
101221.44
101194.86
101196.26
101186.67
101188.31
101206.44
101206.41
101181.53
101215.51
101211.65
101233.04
101225.57
101222.2
101190.23
101196.64
101149.87
101181.89
101148.85
101181.09
101157.68
101155.34
101108.59
101164.97
101152.1
101180.92
101197.17
101214.46
101194.42
101211.83
101193.09
101212.2
101216.85
101225.51
101214.1
101229.77
101221.03
101202.73
101195.43
101215.89
101200.38
101219.64
101236.54
101240.48
101225.02
101233.73
101227.67
101216.79
101234.56
101229.16
101228.45
101236.97
101220.03
101207.03
101208.92
101187.05
101197.67
101207.25
101218.72
101198.01
101182.91
101169.91
101188.09
101211.68
101228.28
101210.47
101231.55
101223.76
101243.08
101251.35
101263.33
101248.57
101233.95
101232.67
101247.85
101262.62
101249.93
101241.95
101217.07
101217.4
101191.82
101189.17
101220.35
101211.05
101238.08
101247.78
101262.04
101244.51
101225.9
101226.06
101244.97
101254.37
101241.49
101242.62
101246.35
101248.57
101259.35
101254.13
101241.1
101237.8
101251.55
101257.49
101255.49
101248.58
101258.73
101273.45
101270.63
101268.87
101269.65
101275.69
101286.98
101286.91
101288.58
101274.87
101262.45
101270.45
101253.98
101254.66
101253.42
101259.82
101267.94
101252.43
101239.32
101241.39
101245.48
101249.58
101234.72
101242.23
101244.8
101251.47
101257.75
101263.07
101268.21
101268.38
101279.77
101294
101300.46
101304.41
101309.58
101311.8
101314
101314.71
101314.12
101313.18
101313.19
101309.76
101303.96
101309.31
101307.98
101300.1
101293.53
101301.88
101308.65
101299.01
101300.29
101301.34
101292.2
101290.73
101291.97
101299.13
101295.76
101301.29
101301.99
101309.9
101305.64
101306.47
101299.19
101296.56
101307.05
101307.57
101312.7
101310.36
101311.23
101310.35
101313.3
101315.02
101311.78
101306.56
101310.39
101315.48
101311.84
101311.6
101308.28
101312.29
101315.09
101317.56
101317.52
101312.58
101314.61
101313.54
101317.66
101315.33
101314.55
101313.71
101314.34
101314.58
101318.43
101315.71
101310.95
101306.56
101304.3
101306.25
101307.01
101295.18
101305.18
101303.32
101308.28
101309.59
101309.57
101303.12
101294.2
101300.87
101300.58
101293.45
101292.13
101293.16
101302.14
101297.24
101302.77
101300.76
101299.87
101306.22
101307.69
101308.31
101310.57
101303.04
101297.38
101295.31
101286.79
101277.38
101288.44
101290.45
101278.8
101279.49
101278.46
101289.68
101283.65
101286.57
101285.58
101281.88
101291.9
101296.82
101291.62
101296.95
101286.08
101278.89
101294.49
101280.09
101272.41
101281.1
101278.42
101273.86
101269.12
101268.91
101283.84
101274.46
101279.11
101282.01
101287.82
101287.56
101294.1
101279.7
101270.22
101284.24
101294.2
101294.8
101286.11
101276.86
101287.91
101288.73
101277.52
101278.27
101277.08
101288.55
101282.25
101284.97
101284.81
101281.02
101291.15
101295.84
101289.92
101294.82
101283.55
101278.8
101292.75
101296.38
101299.14
101289.35
101286.96
101283.45
101286.82
101295.43
101289.82
101297.87
101299.48
101286.44
101291.69
101286.59
101296.47
101297.23
101309.13
101296.59
101303.12
101303.52
101296.25
101301.8
101298.78
101293.34
101293.49
101286.13
101286.93
101278.06
101280.71
101272.02
101272.76
101277.11
101273.31
101283.25
101278.77
101293.31
101284.39
101286.13
101280.45
101277.68
101272.75
101269.6
101272.8
101273.57
101261.73
101272.98
101268.16
101262.25
101254.79
101256.48
101274.54
101262.56
101269.76
101274.1
101281.9
101285.99
101291.54
101292.26
101295.13
101293.87
101287.84
101297.1
101303.64
101300.5
101304.57
101295.04
101287.38
101297.76
101309.46
101305.65
101296.49
101302.63
101309.83
101303.17
101304.28
101304.61
101311.18
101308.69
101308.05
101303.94
101297.95
101295.71
101298.4
101298.54
101304.29
101292.57
101282.97
101293.57
101304.8
101296.84
101305.31
101312.95
101309.64
101303.96
101302.99
101302.44
101303.67
101298.19
101308.17
101305.78
101308.37
101308.79
101313.32
101313.48
101310.73
101312.02
101307.4
101312.1
101310.85
101313.06
101309.51
101312.69
101312.7
101315.88
101315.89
101310.8
101309.24
101313.32
101310.61
101307.55
101304.12
101310.88
101314.39
101314.85
101315.92
101312.44
101311.74
101311.75
101307.16
101314.18
101318.32
101314.03
101318.06
101318.92
101311.39
101317.3
101316.61
101317.12
101318.87
101319.74
101315.25
101322.15
101322.13
101318.71
101310.5
101315.23
101317.57
101313.83
101315.62
101308.84
101312.51
101313.72
101308.47
101313.06
101318.12
101313
101317.06
101309.6
101306.8
101302.83
101301.8
101310.27
101307.2
101308.32
101301.2
101302.61
101301.31
101296.68
101295.03
101303.53
101291.31
101289.85
101290.47
101288.12
101291.28
101287.16
101289.21
101291.95
101278.46
101284.42
101284.13
101273.96
101274.79
101278.79
101275.92
101271.88
101271.33
101268.81
101280.41
101272.24
101268.14
101264.82
101265.47
101279.69
101269.17
101273.65
101276.33
101279.51
101281.82
101276.77
101273.35
101268.63
101265
101269.85
101263.32
101268.55
101273.54
101281.01
101283.22
101281.06
101285.19
101282.37
101286.66
101274.24
101273.08
101288.39
101280.19
101274.9
101277.79
101270.32
101274.15
101269.44
101277.4
101273.29
101264.57
101257.49
101265.46
101260.37
101255.81
101261.3
101251.34
101259.33
101266.77
101262.47
101270.33
101269.72
101287.17
101293.25
101297.23
101306.71
101293.77
101295.74
101305.02
101305.65
101305.33
101303.32
101303.64
101293.16
101292.53
101283.44
101284.97
101280.18
101277.81
101285.17
101295.33
101296.51
101280.63
101284.76
101283.58
101288.46
101300.42
101296.04
101297.14
101296.36
101290.08
101287.04
101294.58
101295.08
101295.39
101296.89
101302.36
101304.04
101312.31
101303.28
101306.57
101308.23
101308.46
101303.98
101295.76
101293.09
101282
101282.09
101288.97
101271.5
101274.78
101256.77
101261.57
101261.46
101267.1
101261.83
101254.33
101246.47
101252.68
101262
101255.86
101246.91
101236
101246.55
101255.18
101264.53
101266.79
101271.53
101288.98
101282.44
101279.49
101276.25
101277.79
101275.3
101278.28
101280.37
101287.32
101295.23
101296.06
101302.69
101288.96
101286.61
101285.72
101284.49
101289.31
101302.84
101293.44
101296.77
101288.91
101287.86
101297.32
101305.01
101303.37
101309.72
101304.3
101314.4
101306.33
101301.86
101305.8
101314.17
101311.19
101303.82
101301.9
101301.79
101301.67
101300.2
101301.51
101296.2
101303.13
101306.52
101306.77
101308.21
101299.88
101301.37
101300.54
101306.9
101306.09
101308.21
101308.63
101301.47
101294.03
101285.36
101287.5
101285.19
101277.11
101268.39
101261.92
101255.42
101246.74
101255.04
101246.44
101255.95
101248.98
101237.45
101226.55
101237.5
101248.1
101238.46
101225.05
101214.93
101197.2
101174.56
101201.86
101184.75
101149.37
101154.64
101173.02
101140.09
101171.16
101181.23
101198.99
101210.4
101225.3
101213.48
101234.78
101225.04
101201.37
101214.93
101199.03
101228.82
101248.26
101295.19
101274.84
101252.65
101276.01
101242.91
101245.4
101244.71
101243.82
101239.64
101274.96
101299.48
101236.07
101243.99
101245.53
101248.79
101277.31
101242.2
101279.12
101241.83
101251.47
101240.34
101204.1
101208.74
101218.5
101225.45
101194.73
101187.45
101174.27
101179.71
101214.82
101206.07
101215.67
101181.17
101173.45
101192.09
101223.21
101209.55
101205.42
101154.65
101157.2
101154.42
101154.22
101208.79
101197.68
101189.95
101191.41
101203.92
101234.32
101234.58
101232.43
101232.79
101289.03
101219.93
101278.91
101224.73
101226.89
101219.31
101219.71
101202.47
101263.53
101388.7
101272.49
101342.68
101235.14
101238.74
101268.17
101254.14
101330.78
101249.79
101324.38
101342.55
101288.01
101320.73
101240.88
101234.86
101234.89
101241.62
101286.75
101225.38
101281.54
101243.07
101236.52
101251.82
101266.24
101253.52
101364.46
101384.16
101276.6
101341.78
101232.55
101245.66
101258.24
101260.17
101270.88
101275.26
101262.27
101247.93
101237.8
101207.07
101206.18
101166.97
101167.4
101209.8
101246.48
101246.63
101303.58
101274.52
101274.26
101268.58
101273.65
101279.45
101281.59
101285.43
101286.1
101285.79
101299.13
101289.91
101284.79
101274.83
101275.25
101269.43
101279.22
101279.17
101283.23
101281.33
101281.75
101294.84
101294.68
101299.4
101297.86
101299.81
101298.45
101297.31
101288.54
101273.94
101274.74
101288.64
101287.17
101276.16
101277.93
101287.4
101294.39
101282.66
101284.38
101296.54
101299.63
101297.97
101300.79
101308.77
101300.64
101290.56
101289.78
101291.66
101289.76
101277.13
101280.43
101280.57
101284.27
101287.26
101296.26
101300.66
101297.55
101302.03
101307.8
101303.06
101307.07
101313.69
101307.2
101307.38
101300.29
101299.67
101298.15
101304.46
101312.79
101303.68
101314.55
101307.31
101317.36
101294.82
101295.98
101297.31
101302.98
101304.15
101302.83
101293.92
101298.51
101294.7
101309.51
101323.07
101290.42
101293.56
101294.57
101309.33
101317.31
101302.78
101317.58
101317.16
101311.39
101310.98
101317.33
101310.05
101304.83
101306.17
101304.61
101297.35
101294.15
101296.92
101293.38
101284.65
101290.71
101285.63
101290.18
101291.9
101291.44
101288.52
101297.47
101289.59
101297.03
101291.58
101298.79
101296.15
101288.05
101284.38
101283.25
101285.91
101283.53
101290.47
101283.55
101280.59
101277.81
101269.16
101269.08
101262.49
101263.19
101273.06
101264.63
101253.19
101252.25
101263.55
101272.27
101280.61
101296
101296.66
101280.42
101280.08
101277.91
101277.44
101279.96
101292.62
101275.05
101279.87
101293.56
101279.08
101275.54
101262.85
101262.69
101271.41
101274.25
101274.57
101269.47
101262.89
101262.61
101252.91
101253.18
101242.73
101241.51
101239.74
101240.16
101253.74
101254.59
101247.37
101257.7
101256.9
101271.38
101271.22
101269.49
101261.45
101261.65
101256.86
101252.56
101252.49
101260.42
101268.47
101251.34
101251.68
101268.1
101260.15
101260.08
101270.79
101268.4
101261.94
101257.84
101259.02
101273.34
101270.82