/*--------------------------------*- C++ -*----------------------------------*\
  =========                 |
  \\      /  F ield         | OpenFOAM: The Open Source CFD Toolbox
   \\    /   O peration     | Website:  https://openfoam.org
    \\  /    A nd           | Version:  7
     \\/     M anipulation  |
\*---------------------------------------------------------------------------*/
FoamFile
{
    version     2.0;
    format      ascii;
    class       surfaceScalarField;
    location    "240";
    object      phi;
}
// * * * * * * * * * * * * * * * * * * * * * * * * * * * * * * * * * * * * * //

dimensions      [1 0 -1 0 0 0 0];

internalField   nonuniform List<scalar> 
76358
(
36.222374
-0.011225837
2.0234092
1.4730314
-1.4802189
-2.0334023
0.060730637
-34.803259
3.7024907e-05
2.1430312
2.1299793
-2.092653
-2.1001985
-1.4918675
1.4731539
2.0314989
-2.0575033
-0.059685114
-36.222557
-1.4920682
1.4729098
-2.0575506
2.0314781
-34.678168
-2.0401347
2.0196486
-2.0329058
1.9939106
0.00077592847
-34.803938
2.1300274
-2.0926956
-2.0996541
2.1438538
0.00059862366
0.0108046
0.00025149642
-2.0834185
2.0762888
2.0773637
-2.0879554
1.4728948
2.0233888
-2.0334503
-1.4803101
2.0762644
2.0769815
-2.0878828
-2.0833295
0.00011157352
-0.053373432
10.409781
0.36940812
-0.37472114
-0.53904505
0.53234566
-0.0098930345
-8.258238
-0.0054276001
9.6660594
-0.0081021745
-7.6824939
10.340688
0.0056045518
-7.4057942
7.4261186
-0.034817386
-0.034548673
0.00083384466
0.0011692957
-9.2590649
0.37629102
-0.38758916
-0.52680545
0.516418
-0.060923261
-36.222132
1.4732692
2.0314976
-1.4917384
-2.0574253
-2.1002199
2.1429487
2.129897
-2.092622
-34.803081
0.010389127
-2.4926391
-2.5121268
-2.1924423
-2.3390009
0.38527504
-0.38263077
-0.3901769
0.53423772
-2.5296324
-2.459753
-2.1990931
-2.2189524
-0.38828577
0.54401675
0.54291061
-0.38368677
-7.8221034e-05
-0.42610357
-0.015708974
-2.048737
-0.00038825802
-0.038694573
0.010737223
-7.8105435
-0.52217101
-0.50328782
0.41258217
-0.0001030298
0.12993413
0.32557572
-0.37545994
-0.52812132
0.41914053
-8.2483717
-7.6936924
-0.13112399
-0.024155692
-0.095797959
0.024434943
9.3843437
0.37619621
0.36846956
-0.38061787
-0.38666149
-0.38683083
-0.38080716
0.36824484
0.37600875
-9.3869364
7.693752
-0.095271674
-9.6661447
-0.13147042
-0.12925441
0.33171011
-0.37595095
0.41584789
-0.36757543
-0.36738592
-0.37571269
0.41604079
0.33194213
-1.8169635
-0.00354143
-0.014848332
-0.04716071
-0.045241008
-2.4759727
2.0868842
0.086788889
-0.097786232
-0.13071246
0.10685607
-2.6288595
0.0015470049
-0.025352522
0.019168847
-0.63980239
-0.61837486
-0.55978142
-0.6110115
0.022619942
0.16938654
-2.0834546
0.16462211
0.083767118
-0.096753708
0.10158413
-0.12924663
-0.11172694
-2.343895
-0.47680611
0.0019595239
0.0056002029
-0.004152727
-0.0021558999
-0.66503742
0.52148567
0.00028207373
-0.6552137
-0.0014192322
0.0069326738
0.0049937241
0.00020830106
-0.57156857
0.004809944
0.01370157
-0.51618359
0.012564718
-0.013211074
-0.62338889
-0.010986154
-0.57672829
-7.6132256e-05
-0.0076931468
-0.00093556416
-0.57616606
0.010861719
-0.023972941
0.020621703
-0.03251403
0.025669782
-0.00029290141
-0.12871084
0.001475233
-0.52802277
-0.00089089395
-0.52634393
-0.0067567717
-0.0064498397
0.095216241
-0.097523733
-0.13155677
-2.0841555
-0.0097594518
-0.37320678
0.36648589
-0.53690492
0.5334826
0.51220817
-0.51933197
-0.53965107
-3.8388886e-05
-9.9071708
2.5269743
-0.1322601
0.13081836
0.13353098
-0.13521351
-0.0024746597
-1.9946495
0.0028804858
0.10757797
-0.13136468
-0.1345135
0.11303295
2.0134226
-0.1341805
0.11253101
0.10740374
-0.12970806
-2.4698121
-6.402522e-05
-0.034078616
-5.7882645e-05
-0.0058681661
-0.64140118
-0.61836939
-0.56458586
-0.57428947
0.17141319
-7.0856493e-05
-0.6265334
-0.64175111
-0.57401476
-0.56881372
0.17021781
-0.52589592
0.0050868675
0.0068473502
8.5650947e-05
0.00094510299
-0.65971059
0.53217375
0.00092210975
0.00018854052
-0.66771225
0.007016165
0.0015262904
-0.0045973385
-0.57704861
0.0016167053
0.013030645
-0.57515378
0.013400023
0.0012930579
-0.56325156
-0.012326313
0.00044315756
-0.56292467
-0.012351925
-0.00098253538
-0.00035599979
0.57606977
-0.012189672
-0.56209841
0.53101171
0.00028445701
-0.66627066
-0.0033870671
0.0070548964
-0.52158386
0.0072524989
-2.1357591e-05
0.0010054069
-0.65199129
-2.1584513e-05
0.57274554
-0.012052046
-0.56002328
-2.080674e-05
0.0025130712
0.012922442
-2.3335792e-05
0.012964971
-0.0016069067
0.58435527
0.010553257
-0.57760554
-0.0027311111
-0.0049306585
0.5841366
-0.57842664
0.010644436
-0.004269818
0.58020868
-0.57857993
0.011110432
0.0018805781
0.57215016
-0.575474
0.010875014
-0.1001781
0.6255802
-0.52053888
0.0095820742
0.11191326
2.2126144
-2.3695269
-0.12830285
-0.092918886
0.087544768
-0.092866658
-0.12822538
0.10025804
0.087605151
0.045308131
2.0834626
0.08385192
0.1016608
-0.12917585
-0.096671211
-2.3439091
0.37553066
1.8169782
-0.046911037
-2.4760023
10.418118
0.32552367
0.41924688
-0.52801439
-8.2485332
-0.010037424
8.3795873
-0.2004255
-0.0095270375
-0.062408903
-0.012985261
-9.259072
-0.0031195566
0.51648254
0.3761675
-0.3877271
-0.52675561
0.011536725
0.53427759
0.38511699
-0.38279807
-0.39017871
-2.3390641
-2.4926838
-2.5120939
-2.1924003
0.3003914
8.8014096
-0.38815741
0.54420861
-0.38314508
0.54359422
0.00063786815
-2.5297387
-2.2189756
-2.4597591
-2.198929
8.3873185
0.00048730606
-10.129847
-0.074292459
0.00047034026
0.51934645
-0.52725584
0.5171469
-0.52345611
0.0005641643
-0.0035154723
-2.0946451
0.0031700459
0.0011792167
-0.0049229201
0.001417628
-2.0930053
-1.8942133
0.0047692623
-0.0027557107
-0.0025866658
-2.6641872
2.0929973
0.0038207213
-2.6274879
0.0014553207
-2.3247487
0.0032626748
-0.0037630954
-2.3262939
0.0046469563
-2.6275095
0.0013987705
-0.0067000102
0.013239785
-2.1036826
0.0039109065
-1.9070128
0.006517638
-0.015429635
-0.015229429
-2.6417826
2.1036572
-0.013248995
-0.00088792217
-2.4951268
0.013318199
0.0036065204
-2.3076146
0.0040203854
0.0038583615
0.013348115
-0.00025812668
-0.00041888495
-2.3335347
-0.0005963302
-2.4951463
2.1044958
-0.0014577645
0.0024702204
-2.494262
2.6289087
0.022367483
0.001339089
0.0072968472
0.0011096883
2.3133025
0.0025713316
-2.312926
0.0023248092
-0.003513865
-2.3033307
0.00033709934
-2.0876289
0.00025425725
0.0080585692
-2.6183434
0.00030951854
-2.3031643
0.00039379802
-0.0025198128
-2.2881909
-0.024094777
0.00045354391
0.011187677
-2.2987812
0.009723263
0.0033939065
0.0079617998
-2.3118527
-0.0021438896
0.00055024109
0.011121193
-2.2943245
2.0978419
0.00035730714
-2.481018
0.00033708034
-0.54374055
2.6179742
0.024662763
-2.0975186
-0.0010407464
0.29956045
8.8007949
-0.011026911
-0.38280026
-0.38739954
0.54471709
-2.4597964
-2.1988413
-2.5296641
-2.2186466
2.0326681
8.3872203
0.010001116
-10.129842
1.9941237
2.0202988
-2.0394422
-34.678335
0.0018185442
-2.092327
-0.51674582
-0.0052417426
0.0034656212
-0.0020904145
-2.3236791
0.0020201792
-0.0039336015
-2.3120321
-0.0039198767
-2.3025913
-0.51726451
-0.00092918426
-2.0873586
0.073501715
0.0035859101
0.51976517
-0.52654289
-0.52320449
0.013450517
-8.3794911
-0.061240409
-0.19921944
-10.418174
9.2583031
0.5347974
0.38555493
-0.38225051
-0.38943386
-2.5120711
-2.1921019
-2.3388674
-2.4926818
0.51691331
-0.52603392
0.37655831
-0.38717167
0.0035260541
-2.0924306
-0.0050770852
-2.0940638
0.00081931422
0.0081639153
-2.6281614
-0.0014284509
0.0085399729
-0.002226046
-2.3023092
-2.311545
-0.0048928085
0.0021446914
-0.023328346
-2.2972966
0.011263211
-0.0043279388
-2.2872273
0.012179085
-0.0028674056
-0.002985779
0.012383848
-2.2932077
-0.002137963
-2.480691
2.1038565
0.00052023619
-0.0003641833
-2.4935501
-0.0039569282
2.6267965
-0.006894332
-2.1030995
0.01403781
0.004500309
0.0024032653
-0.0042139369
-2.3251743
0.52616206
0.0022372201
-2.6266752
0.37638815
-0.38733247
-9.2581326
-1.8938411
-2.6637047
-0.385405
-1.9066786
0.0070394694
-0.38237639
0.53462259
-0.38958024
0.011560144
-2.3388806
-2.1920898
-2.512042
-2.4926717
-0.014990255
-0.014859264
-2.641456
-0.012462331
-2.4945411
0.00012507646
2.3064633
0.012751518
0.00056107928
-2.3323633
0.009709449
-2.310231
0.011435607
0.013792902
2.265622
-0.0089499973
-2.272191
-0.0013107978
2.2211651
0.022898425
-2.2189332
-0.0119907
0.020185035
2.2239933
-2.2223772
-0.0080421968
2.2687986
0.011003164
-2.2757885
0.0015643692
0.0029483611
2.2984655
-2.3114393
2.1043924
0.0020776202
-2.4940793
0.00099042808
0.022197617
-2.0977006
0.023388061
-4.0998218e-05
0.0015376806
-2.480789
-5.8427843e-05
2.2871337
0.010340848
-2.2929318
-5.6690241e-05
-0.002094317
0.010217793
-3.2090088e-05
0.0097293793
0.008797212
0.0096985823
-2.2203502
0.014367684
-0.00042579122
0.018680826
-2.2172561
-0.00043093418
2.0045969
-0.0013255005
-1.9614686
-0.0029369743
-0.015869675
-0.0011389981
-0.0024300328
0.0010626486
0.018000576
-0.009152803
-2.0036209
-0.015765821
-0.0015995762
-0.019481387
-1.9607325
-0.0018340577
2.2147222
-0.011204619
-2.210495
0.0012889064
-0.011331864
-0.011273742
0.00095561496
-0.01053188
-0.0047492572
-2.2965912
0.0028775058
-0.022967694
-0.013750409
-2.1030043
0.004240724
-0.00027501655
-2.4944172
-0.00073601337
0.38757936
2.1034722
0.0025341098
-2.4931246
0.0037833952
-2.3094995
2.2847044
-0.002442047
-2.2902344
0.00055072934
-0.024321473
0.00045094602
-0.54348761
-0.0014114386
-2.0965886
0.00024889275
0.54436639
-0.38276861
0.00038395826
-2.2185492
-2.1984936
-2.5295716
-2.4595958
-2.479524
0.00025880709
0.0090738608
0.00029037691
-0.57240917
-0.57895138
-0.0055780761
-0.58419764
-0.57558126
-0.17217069
0.018351736
0.00064024434
-0.56517763
-0.56861265
-0.0068422778
-0.58180164
-0.57771829
0.025691181
0.0015588681
-0.017153638
-0.56327597
-0.55346397
-0.53042192
-0.55507782
0.0014802314
-0.0022916717
-0.030748341
-0.52963105
-0.4963706
-0.39082274
-0.48665715
-0.025675194
-0.0034877949
-0.026861112
-0.4972104
-0.53195596
-0.48950423
-0.38529359
-0.017291459
-0.0003734887
-0.014554289
-0.55588854
-0.56463597
-0.55661146
-0.53357608
-0.0081112739
-0.0059386626
-0.56942751
-0.58225569
-0.57828886
-0.56615735
-4.396048e-05
-0.0051097218
-0.57930451
-0.57579513
-0.5728562
-6.628064e-05
-0.014265077
-0.57851805
-0.57938741
0.0075445872
0.050162387
-0.59918033
-0.57449279
-0.018764293
-0.16444762
-0.049936091
0.014906934
-0.018915272
-0.0033328895
-2.0868898
-0.02531741
0.016027267
0.086777274
-0.097802749
-0.13068052
0.10688603
-2.6288981
0.0019028567
0.63981843
0.0055923019
-0.47681091
0.0020293654
-0.61103023
-0.61836345
-0.55976243
0.022973314
0.16936829
-0.51618586
-0.0001324843
0.012541223
0.0021651294
-0.013126934
-0.62339044
-0.011009472
-0.0040743559
-0.66504538
0.52148683
0.00029058864
-0.65521747
-0.0013148243
0.0069418921
0.0050968838
-0.57156968
0.0049149197
0.013701739
-0.57672746
1.6002313e-05
-0.0076945612
0.010770913
-0.57616798
-0.00094354316
-0.00018958295
-0.023979759
0.020616286
-0.032508021
0.025674224
-0.1243081
0.00077860122
-0.48140838
-0.0076816407
-0.0049962196
-2.0757682
0.091141945
-0.095481133
-0.1289903
0.12207295
-0.3664259
-1.7527831
0.0066799686
-0.37327495
-0.53683668
0.5264537
-0.0092306473
-10.410038
-0.012028822
-0.017796445
-2.4768506
0.093479797
-0.093834293
-0.12660324
0.12667821
-0.13090203
-2.343277
-0.097987113
0.66482599
0.0011737501
-0.47532369
0.00079086788
2.0842117
-0.0010107046
0.1319674
-0.13053572
-0.096838956
-2.640414
0.095200861
-0.097543382
-0.13152593
0.12874435
-0.0064286031
-0.47652851
-0.0013954602
-0.002066819
-0.0026602223
-0.0016581762
-0.60498817
-0.0058191564
0.0013412543
-0.00057457178
-0.57767868
0.023321236
0.031907488
-0.032327983
-0.023814897
0.52802858
-0.0016670785
-0.6592064
-0.00078354342
-0.13083927
0.65971909
0.0023627148
-0.53266239
0.00063631557
-0.53361948
2.5270367
-0.13224519
-0.13512688
0.13362003
-0.0022011887
-1.9947319
7.8108321
0.51260585
-0.51904468
-0.53957789
0.00035667423
-9.9076763
0.4262716
-0.52204492
-0.50288262
0.41299687
0.00046030948
-2.0487633
-0.038524078
-0.00015244099
0.10760786
-0.1313468
-0.13442754
0.11312189
0.0031759491
0.62656087
0.006878516
-0.52590095
0.0051663109
-0.5688304
-0.64174762
-0.57398039
0.0062257061
0.17036721
-0.57515723
0.0046903084
0.013429952
-0.00098058101
0.0013940925
-0.56325262
-0.012302112
0.00017593795
0.5321752
0.0009890629
0.00030175077
-0.66771762
0.007077692
0.0016380875
-0.57705331
0.0017403815
0.013100536
0.00055122921
-0.56292602
-0.012295356
-0.0010929472
0.57607292
-0.00024830136
-0.56209762
-0.012082819
0.13409968
0.53101633
0.00037355926
-0.66628076
2.0134314
0.11262996
0.10756441
-0.12955415
-2.4698845
0.00020583792
-0.033667367
0.00018407473
-0.64144
-0.57428669
-0.56451424
-0.61837285
0.17198165
0.00026144136
0.0071523396
-0.0033079687
-0.0024128098
0.013091761
-0.007397767
-0.57273826
0.013125192
8.3785225e-05
-0.52158011
6.5932735e-05
0.0011668974
-0.65199465
6.7056901e-05
-0.56001387
-0.011878016
7.222106e-05
-0.00014137814
-0.0026512712
7.8651297e-05
-0.54470696
-0.032451943
0.02613037
0.026128719
-0.032400049
-0.00037446042
-0.0025826484
-0.54657746
-0.032539734
0.026134177
-0.032453837
0.026154961
-0.00053097606
-0.0024898861
-0.032607508
0.026054209
0.026155821
-0.03251777
-0.54736437
-0.54837082
-0.032694488
0.02595182
0.026078706
-0.032575685
0.0011192067
-0.54949401
-0.032533452
0.032125574
0.031987602
-0.032336914
0.00018660498
-0.00069007089
-0.66476539
0.53617792
-0.67093435
-0.0010781688
1.7654031e-05
0.00022676644
-0.13328099
-0.53481757
-0.0005380889
-1.9571145
-0.13464539
-0.1301164
0.128925
0.00019053707
-0.0014734215
0.13588519
-0.13413124
0.13144068
-0.12966118
-2.4783834
0.00016417062
0.13345219
-0.13184509
-0.13458415
0.13627093
-2.5400878
-0.00064547109
-0.53207071
0.00066026792
0.0007427176
-0.52731522
0.00060449947
0.0011206618
0.00066464209
-0.00082128832
-0.65881496
-0.00016498669
-0.6647113
0.48131065
0.0004537044
-0.0037896838
-0.6047429
7.0298158e-05
0.0037212624
-0.57741209
8.6775217e-05
0.032491394
0.023853908
-0.023732877
-0.032290998
0.00017243998
0.023905203
0.032577617
-0.032343361
-0.02378729
-0.57681835
-0.00072890626
0.54944448
0.032742632
0.00013639782
0.03263598
-0.032596041
-0.032430834
-0.54903127
-0.00060625633
-0.66485974
0.53496256
-1.3213171e-05
0.00077582092
-0.67091557
0.00081777903
0.00014162791
-0.00018959397
0.54790355
0.00022287462
-0.54785662
-0.032307781
0.032619815
0.032665049
-0.032239515
0.032734166
-0.03248743
-0.032290508
0.032634138
-0.0001769407
-0.1313674
0.00019192795
0.16398283
0.00010374946
-0.00023338609
0.16353425
0.00014696404
-0.13113337
-0.023552004
0.1652455
-0.11864984
0.00057686775
-0.13115809
0.64898648
-0.00064044969
-0.51351385
-0.02356476
-0.032791061
0.032850991
0.1307163
2.1293481
0.09868044
-0.098308215
-0.1309429
0.13106688
-0.13103179
0.098611599
-0.098379808
-2.3918207
0.011965809
2.0757465
0.093395285
-0.093908493
0.12660227
-0.12667306
-2.3432429
1.7527527
-0.017999365
-2.4768015
0.0050609284
0.091057337
-0.095565496
-0.12906522
0.12423443
0.12226018
-0.47652071
-0.00076790352
-0.0027416878
-0.0020556074
-0.66481264
-0.0013487381
-0.0017778719
-0.65919462
0.0017504011
0.023328191
-0.023807733
-0.032334554
0.031901287
-0.00067801464
-0.57767437
0.48140556
-0.0057929008
-0.60498309
-0.0076550836
-0.13201758
-0.51149271
-0.024008914
0.019830003
0.64656268
0.025753523
-0.033109302
0.00082720547
-0.13218816
0.10145566
-0.099355135
0.10151409
0.13210152
-0.13210016
-0.099291066
0.023120614
0.00037202091
0.032364354
-0.032757925
-0.023589041
-0.64898379
0.16452815
0.00034040984
-0.11848978
7.0027409e-05
0.11806619
-0.00075386543
-0.00076603071
0.15601907
0.0017167796
0.0007820437
0.015241019
0.0075429163
-0.15543537
-0.15415941
-0.14246544
0.0021281999
0.0019758122
0.52727521
-0.015386718
-0.03066117
-0.57217039
-0.0017890542
0.027010775
-0.57953879
0.010656082
0.0034758739
0.0070505882
-0.15367455
-0.15635732
-0.14458618
-0.14269218
0.0028770576
0.012662198
0.58128618
-0.00032990987
-0.14793839
-0.15574751
-0.14322158
0.0033808473
-0.14304125
0.030712525
-0.012606437
0.5831773
-0.61928236
-0.0019456868
0.52727973
-0.015315786
-0.57217239
0.52054262
-0.015158209
-0.64656495
0.62559521
0.0095541156
-0.0018074373
-0.59920756
-0.57449408
-0.57213651
-0.018882577
0.014601879
-0.0017271473
0.026958587
-0.010862447
-0.57955175
0.010626757
0.003566218
-0.57547959
0.0043749349
0.0075256623
-0.15602305
-0.15544129
-0.15415546
-0.14246155
0.0022233242
0.0070191142
-0.14458222
-0.15636195
-0.15368187
-0.14269194
0.0029569981
0.58130287
-0.00037259333
0.0034445642
-0.14321953
-0.15575168
-0.14794664
-0.14304431
0.00016963161
0.58568766
0.0026021825
0.0034701496
0.6375352
-0.00021890821
-0.58569416
-0.57832476
0.0081141922
0.007946
0.0026339203
0.0033952767
-0.58128319
0.0041203623
0.0040741616
-0.15636142
0.0035815322
0.0035333776
-0.14444974
-0.14444639
-0.14384305
-0.0062266962
-0.0062108264
0.0010628872
-0.14606339
0.0010765967
-0.0011354822
-0.022244015
-0.1320108
0.0012252096
-0.0019743639
0.0012934275
-0.13024993
-0.025952125
-0.001041636
-0.025581308
-0.13017904
0.001153064
-0.0018811236
0.0010201793
-0.13123751
-0.025300495
-0.13074465
0.00089846085
-0.00069020875
8.7267358e-05
-0.16400488
0.00039299065
0.14368315
0.00051594973
-0.14551006
0.0002277616
0.13014977
-0.16296539
-7.1451673e-05
0.0014992487
0.00094294068
0.0022083653
0.0014070561
-0.14415169
0.0011446776
0.001649378
0.00073642465
0.00061158778
-0.14529368
0.00030992008
0.033025917
-0.16382605
0.00038630706
-0.4942768
-0.032290807
0.038824199
0.032202348
-0.032599596
-0.031927054
0.031900622
-0.032327448
-0.56050879
-0.00032446563
-0.131601
0.00034347963
-4.1714808e-05
-0.13156676
-5.7825129e-05
0.00044701219
0.00012616624
-0.00012434751
-0.16477351
-0.00019525142
-0.16524429
0.13095273
0.00012376456
-0.16353487
-7.1423237e-05
-3.2261532e-05
-9.0880641e-06
-0.14583115
0.00018885836
4.2142936e-05
0.00021127999
-0.14589136
9.886024e-05
-0.00016196949
0.00027927053
0.1455796
-0.1456313
0.00014568241
0.00010294757
-0.16458986
0.13006808
0.00011452832
0.0002041953
-0.16221091
0.16184969
0.00044588888
1.6603754e-05
-0.00063089615
0.00039704502
0.14378322
0.00059774019
-0.14478411
0.00038384397
0.00162285
0.0017659279
-0.14310515
0.0010220086
0.0017778333
0.00033035379
0.00046600657
-0.14378306
0.00047929601
0.032338071
-0.16201302
0.00015241486
-0.038762776
0.025972615
-0.032317104
-0.02390221
0.022259581
-0.52565022
-0.023916117
-0.00079157931
-0.49427875
0.025324259
-0.033002422
-0.032273017
0.025600438
-0.51149516
-0.023983661
0.019854288
0.025775966
-0.033088086
0.00033502604
0.032387123
0.023147377
-0.023562609
-0.032734916
0.032228309
-0.032573113
-0.031906159
0.031920669
-0.56050945
-0.032395044
-0.00031658943
0.1638274
-1.6587314e-05
-0.13160133
0.00033541115
-0.0003360918
0.16400559
-3.2319651e-05
-0.13156665
0.16452932
9.3461152e-05
-0.11849026
0.11806737
-0.00075793437
-0.00074352623
0.0017132042
0.00080168609
-0.13074569
0.00091929434
0.0018742844
-0.00066605363
7.9931562e-05
0.00039410246
0.14368372
0.00051263335
-0.14551022
0.00025371265
0.13014953
-0.16296493
-4.2041774e-05
0.0014983624
0.00097161609
0.0022050675
0.0014347546
-0.0010402682
0.0011400424
-0.1441531
0.0016761719
-0.13123898
0.0010352984
0.0003788567
-0.00071292277
0.13018087
-0.00060871068
-0.1618512
0.00038487699
0.0011715429
0.0019631918
-0.14378572
0.0016146336
0.0017907276
-0.00060601604
-0.14478576
0.00058955259
0.00040779519
-0.14529447
0.00033506965
-0.0001853386
-0.14557963
0.00033836167
0.00011554706
3.3406569e-05
-0.14583083
6.9545782e-05
-0.13095214
2.1559051e-05
0.0001709294
0.00012266838
-3.9471648e-05
-0.00045134386
0.00015301355
-0.00013239413
-0.16477353
0.00020770687
-0.14589081
0.00012795617
-0.00018890602
0.00027295259
-0.14563076
0.00017479278
9.4485458e-05
-0.16459023
0.1300684
0.00023072523
-0.16221099
0.00010019403
4.0770892e-05
0.00043250848
-0.14494282
0.00036649811
0.00016969845
-0.14497581
0.00031605701
0.00022060421
-0.00011719473
-0.0002241446
-0.14508596
0.00026406821
0.00018741975
-0.032262981
-0.00022195969
-0.13020915
0.00036590069
-0.49574789
-0.032643555
0.032721162
-0.032023014
0.032960851
-0.0007849476
-0.032588458
0.032923295
0.032394719
-0.032047044
-0.032462142
-0.56149153
0.023853698
-0.02348136
-0.032708615
0.033136602
-0.64983171
0.16526395
0.00042467815
-0.11852112
0.00059139573
-0.00042944872
-0.00025407892
0.13174785
1.5878889e-05
-0.16482817
-0.00015606464
1.4421738e-05
0.0003877581
-0.14601976
0.00018530177
0.00010503414
-0.00012377259
-0.14611137
0.00014310646
8.8149786e-05
-0.1637661
-3.6117984e-05
-0.13107628
9.9690596e-05
0.00021278276
0.00013061495
4.5926593e-05
-5.2370422e-05
-0.16354381
-0.00047198943
-0.16518717
0.13167336
0.00015450834
-0.00023691921
-0.16477156
0.00019708026
0.0003761053
-0.14602415
0.00010595865
0.00010358889
4.4450997e-05
6.9103866e-05
-0.14593727
-0.00013815746
4.2577173e-05
0.14577316
7.2815684e-05
-0.14570595
0.13172002
-5.5284331e-05
-0.16462827
0.16465665
0.00017565249
0.00018712081
0.1317704
5.4586129e-05
3.2042613e-05
6.7133816e-05
-0.14574709
0.00014461558
0.00016921944
-0.14583536
0.00011674541
-9.1384507e-05
-0.14517274
0.00019807348
0.0001493172
-0.16232242
3.0915271e-05
-0.13020676
0.00018139871
0.0002733187
0.00012655112
-0.00012287779
-0.16231277
0.14513123
3.9823808e-05
7.8148568e-05
-0.14508008
-0.0001153278
0.00012465627
0.00013055973
0.00011555355
-0.00011591305
-0.14443037
0.00013220892
0.14442273
0.00010689921
-0.00010345579
0.14570107
8.7334517e-05
-0.14569727
0.16410817
8.2139184e-05
-0.13133835
0.00015818057
5.9037023e-05
0.14565405
0.00011266137
0.00018068939
0.14558077
0.00013507594
0.00023516002
-0.00015930812
0.14546673
0.00025369758
0.00014760841
0.13117887
7.1734083e-05
0.16323502
-2.2484302e-05
0.00011346639
0.13079619
-0.0004613956
0.00016369036
0.15583087
0.0015628327
0.00032592586
0.57859379
0.0074618679
0.0021367066
-0.14416611
-0.14324251
-0.15503166
0.5802545
0.011119069
0.005025104
-0.57857238
-0.58415085
-0.57942158
0.0075849492
0.0055214792
-0.58015023
0.0042096803
0.012053452
0.0023135124
0.0067493728
-0.14502455
-0.14619961
-0.14438663
-0.14318346
-0.00729806
0.57852089
0.0064810631
0.0010906998
-0.14490581
-0.14520667
-0.14335824
-0.14301035
0.57845037
0.00083916005
-0.15520573
-0.143396
-0.14312546
-0.15501905
0.010683904
0.0017412558
0.012149558
0.0018433359
-0.0031195789
0.58320086
-0.5749983
0.0050238198
0.0020427653
0.58585639
0.0044261986
-0.57787857
-0.57658626
-0.57114545
0.0063622223
0.014273137
-0.57560632
0.0027404438
0.0048261809
-0.005148227
0.0030701383
-0.14372206
-0.14457509
-0.14322616
-0.14256067
0.0041372837
0.0025561187
-0.14360651
-0.14490357
-0.14404906
-0.14282985
0.0051779716
0.0015693828
-0.14339749
-0.14379494
-0.14298932
-0.14252673
0.57206393
0.0025201763
-0.14270038
-0.14339965
-0.14287021
-0.14206235
0.0046965942
0.0028959904
0.0057867527
-0.0051427131
0.56989476
0.001815122
-0.56961603
0.0059448582
-0.012148563
-0.00010173353
0.58256903
-0.57341868
-0.010644981
0.57939934
-0.57745565
-0.001603938
0.58444208
-0.0026181937
-0.57763585
-0.57582436
-0.57286338
0.0086020924
0.00041220901
-0.57608514
0.010662513
0.00010526703
9.8253219e-05
0.0075069643
-0.15485313
-0.14305949
-0.14300252
-0.15475063
9.7400089e-05
0.0074090435
-0.15506195
-0.14317769
-0.15489743
-0.14305323
0.00024567258
0.0065959514
-0.14484237
-0.14497915
-0.14307679
-0.14289922
0.57627047
0.0067935793
0.00012612564
-0.14284176
-0.14292287
-0.14486675
-0.14480616
0.012318814
0.00014685006
0.57858351
0.0057055307
-0.57226653
0.00019457549
-0.56674848
0.00066714399
0.017768438
-0.56748303
0.0003300155
0.0079251884
-0.0019101481
-0.006126048
-0.14135274
-0.14258125
0.00028703475
0.0073996379
-0.14085052
-0.14234899
-0.0055617964
-0.1421019
-0.14296308
-0.14256086
-0.14144852
0.0056301606
0.00081074772
-0.14326724
-0.14348203
-0.14259435
-0.14228226
-0.14330767
-0.14230498
0.00017749703
-0.1432081
-0.142145
-0.00024935487
0.0011313673
-0.1428207
0.00012473514
-0.0014937143
-0.00026375728
-0.0014562634
-0.14288163
0.0010850544
-0.00040760665
-0.0014017778
0.001013542
-0.14294995
-0.00038016759
-0.0013545913
-0.14303044
0.00096009946
-0.00066306547
-0.0013230933
0.00092004924
-0.14310899
-0.00064178478
-0.0013030788
-0.14322816
0.00090345223
-0.0018010228
0.0010533649
-0.1433175
-0.0014801969
-0.0013104272
0.0010132563
-0.14310875
-0.13025198
0.0011256834
0.00014044583
-0.00030970232
-0.16201495
0.13201264
2.040175e-05
-0.0090622712
-0.14673253
0.0012404358
-0.14375093
0.001298127
0.0016621829
-0.00045502568
0.00043966993
-0.14429435
0.00057917792
-0.14378572
0.00050179013
-0.00015792119
-0.14390236
0.00038337523
0.00025768527
-0.032344826
-0.12960493
0.0002093951
0.032320572
-0.032240601
-0.59156815
-0.0240566
0.024532454
-0.024038921
-0.032215089
0.02454879
-0.12960428
0.0002228035
0.00013491381
0.0002658451
-0.16227683
0.00028063513
-0.00032579827
-0.14393756
0.14390086
0.00025484793
0.00037349716
0.14494216
-0.14497602
0.00019153626
-0.00034439655
0.00037551295
0.0001435333
8.8665713e-05
-0.00022519543
0.0004031436
0.14391392
0.00019710237
-0.14420031
2.5269364e-05
0.14511704
0.00014129154
-0.14546666
-0.032126573
0.16323406
8.7029693e-05
-0.13117833
0.0011562534
7.2011646e-05
0.54836828
-0.54948915
0.031972669
-0.032352501
-0.032532149
0.53265229
-0.00078627057
-0.66474774
0.00054287489
0.0023262916
-0.53616936
0.0024210116
0.00010994324
-0.0011493167
-0.6709169
-0.0001029181
0.54736075
-0.54789767
-0.032363225
0.031964148
0.032007987
-0.032303187
0.00015389534
-0.00041686854
-0.032613642
0.026044488
0.026131914
-0.03254179
0.00025298401
0.025950617
-0.032693222
-0.032589783
0.026065631
0.1558241
-0.13079503
0.00030385554
0.0015606262
0.002029461
0.0074553559
-0.15503354
-0.14324655
-0.14415867
0.0072616666
0.00071903096
-0.15519528
-0.15501815
-0.14338694
-0.14312944
-0.0022210036
0.57845318
0.00097890845
0.006472886
-0.14489735
-0.14518887
-0.14333802
-0.14299807
0.58011606
0.006762805
-0.14618998
-0.14502373
-0.14317921
-0.14437454
0.0041250134
0.012059301
0.0017093379
0.012125881
-0.57735323
-0.0017333392
0.012044658
-0.0073190939
0.00010911506
0.0065374863
-0.14304549
-0.14494998
-0.14482535
-0.14288102
-0.00022706487
-0.14316774
-0.15504698
-0.15489367
-0.14305982
0.57606892
0.007329977
-0.14305488
-0.15483638
-0.15474668
-0.14301902
-2.1053734e-05
0.010488222
-2.3094898e-05
-0.57617396
0.012093337
-2.0699278e-05
0.0066241741
-0.14289037
-0.14483015
-0.1447872
-0.14283561
-1.5706684e-05
-0.00065908752
0.57196055
0.0059801331
-0.14220143
-0.14322416
-0.14314434
-0.14207214
-1.5348587e-05
-0.0014698737
0.0055522792
0.57315914
-0.14251983
-0.14342345
-0.14321306
-0.14220681
-0.0024808064
0.57485505
0.0052010569
-0.14376515
-0.14336968
-0.14248602
-0.14295144
0.57781708
0.005180873
-0.14489086
-0.14359803
-0.14281453
-0.14403168
0.58577389
0.0030485872
0.0044491814
-0.58308313
-0.57095412
-0.57649625
0.014419971
0.0050370569
0.0019093339
-0.0026941266
-0.5718385
0.002783949
0.0058316094
-0.5755395
0.0048724713
0.0030066499
-0.14456232
-0.1432121
-0.14370587
-0.14254143
0.004189823
0.0024251795
-0.14264674
-0.14335529
-0.14281584
-0.14199296
0.0047548565
0.56908456
0.0017040291
-0.14285169
-0.14243197
-0.14196168
-0.1412702
0.0057044045
-0.005098496
0.0016353679
0.0059041295
-0.00024104584
0.0055500696
-2.6083044e-05
-0.56662695
0.0077273305
-7.2290685e-05
-0.14237994
-0.14107036
-0.142165
-0.14058189
0.0072977315
-4.3325204e-05
-0.0015485425
-0.00045449788
0.0014526268
-0.14204105
0.0002115199
-0.0011064154
-0.00031663323
-0.14246535
0.00013841968
-0.0014531939
-0.1427563
-0.00020444986
8.3368468e-05
-0.0011834014
-0.00014356742
5.4876855e-05
-0.14307147
-0.0025303967
-9.1344453e-05
-0.14342186
3.0047245e-05
-0.0017461184
-6.0718293e-05
1.6001912e-05
-0.14379445
-0.026089893
-2.6662607e-05
-0.13046172
-4.2223486e-06
-0.0024861545
-2.0976073e-05
-0.54470637
-0.032486812
-0.03245869
0.026068755
-2.2921958e-05
-0.12877009
0.00062967944
-0.52631552
-2.1506638e-05
-1.9570007
0.13319762
-0.13472251
-0.1302689
-5.4168132e-05
-0.0012344845
0.13579915
-0.13419581
-0.12978997
0.13128296
-3.5995739e-05
-2.4781585
0.001302285
-0.13185452
0.13343068
0.13617937
-0.1346589
-2.539934
0.098002543
-0.096819238
-0.13056065
0.13193271
-2.6403128
-0.47531169
0.0010944476
0.00080242647
-0.0011950979
-0.00015371459
-0.66469061
0.52730087
0.00065712162
-0.00092402332
-0.65878972
0.00059681767
0.00053659612
2.2803983e-05
-0.57740247
-1.9877723e-05
0.032484522
0.023860908
-0.023725247
-0.032298197
-0.481304
0.003748415
0.00036223823
-0.0037631258
-0.60472989
6.6016539e-05
0.023912119
-0.023779738
-0.03235059
0.03256971
-0.57680063
-0.00069111091
1.6542414e-05
0.54943289
0.032617137
0.032742454
-0.032594872
-0.03244917
-0.54900785
0.53205068
-0.00069627644
-0.66482405
0.00056545727
0.00070475177
-0.53493985
0.0007446573
2.3120653e-05
0.00070168525
-0.00012497197
-0.67087173
0.54784178
1.981952e-05
0.032621017
0.032614283
-0.03245139
-0.032431524
-0.54749576
-7.0424525e-05
9.6562982e-05
-0.032316181
0.032611629
0.032636772
-0.032269596
0.032734937
-0.032486354
-0.032308032
0.032617634
-0.00014375626
0.16398212
-0.13136654
7.4847412e-05
0.0001882666
-0.00020835021
-0.1311336
0.00014784397
-0.023524603
-0.11864844
0.00058131429
-0.51350964
-0.02359307
-0.032816367
0.032827009
-0.00060103823
0.023824547
0.00082515021
0.033110354
-0.032734002
-0.023508888
-0.64982172
0.16526163
0.00059576823
-0.11851908
0.00039834551
-0.00028008011
-0.00042505044
0.00012436621
-0.16376562
-7.0631082e-05
1.3855211e-05
0.14602016
-0.14611132
0.00014627421
5.5394183e-05
0.13174755
-0.16482756
-0.00014755725
-1.37925e-05
0.00039615462
0.0001887469
7.4110941e-05
-3.8244114e-05
-0.14574781
0.00023055414
0.00011294665
-0.032692824
-0.13177
0.00023088046
-0.49574647
-0.032047737
-0.032673562
0.032240272
0.033036444
0.032891635
-0.03261968
-0.032073856
0.032368377
-0.032380545
-0.56148706
-0.00038472466
-0.13171908
0.00018507054
0.16465592
0.00015444803
-0.13167251
0.00016634842
0.00046782537
0.00012335341
-0.00022857214
-0.16476912
-0.00015699514
-0.16518288
0.13107504
4.5954303e-05
-8.7947152e-05
-0.16354063
9.9926959e-05
0.00017755183
-0.14602317
6.9361887e-05
0.00010875748
4.6951687e-05
3.4035031e-05
-0.14593484