/*--------------------------------*- C++ -*----------------------------------*\
  =========                 |
  \\      /  F ield         | OpenFOAM: The Open Source CFD Toolbox
   \\    /   O peration     | Website:  https://openfoam.org
    \\  /    A nd           | Version:  7
     \\/     M anipulation  |
\*---------------------------------------------------------------------------*/
FoamFile
{
    version     2.0;
    format      ascii;
    class       volVectorField;
    location    "240";
    object      U;
}
// * * * * * * * * * * * * * * * * * * * * * * * * * * * * * * * * * * * * * //

dimensions      [0 1 -1 0 0 0 0];

internalField   nonuniform List<vector> 
25278
(
(120.02814 0.0082933843 0.0077131423)
(120.02362 -0.0016454682 -0.017989472)
(120.02051 -0.0027386418 -0.0082369798)
(120.02133 -0.0077776318 -0.0056799474)
(119.99827 -0.023374145 -0.0089135446)
(120.02644 -0.020733742 -0.0059155649)
(120.03373 0.0079173198 0.0024748077)
(120.02881 0.0081367476 0.0068944365)
(120.03116 0.0039047242 0.0087744173)
(120.04543 0.0076965814 0.0072642655)
(120.0394 0.0044541974 0.0038668555)
(120.0328 0.0054551112 0.003606601)
(120.02917 -0.0054025027 -0.0080766208)
(120.01735 -0.013906612 -0.017251265)
(119.89474 -0.046828061 -0.076820515)
(120.02021 0.0019940443 -0.0088888266)
(120.02303 0.0012353612 -0.01779734)
(119.93397 -0.057265217 -0.097911238)
(119.87153 -0.017578569 -0.1295953)
(119.97004 -0.022797844 -0.11774472)
(120.01535 -0.0054479786 -0.056586637)
(120.01926 -0.017175332 -0.046773906)
(120.02015 -0.020668895 -0.033011644)
(120.03873 -0.010783902 -0.017818607)
(120.06256 -0.022787736 -0.028820226)
(120.04005 -0.015989444 -0.015770833)
(120.02116 -0.030838718 -0.026907661)
(120.02411 -0.046441769 -0.053601334)
(119.99971 -0.042362814 -0.078772914)
(120.03293 -0.040397064 -0.07526317)
(120.03349 -0.039192894 -0.096534804)
(119.98667 -0.040458274 -0.10622101)
(119.95882 -0.089222446 -0.16779007)
(119.98441 -0.084379171 -0.11576878)
(120.0387 -0.075495315 -0.11475483)
(120.01841 -0.069890361 -0.13857831)
(120.04569 -0.065511455 -0.13319128)
(120.04078 -0.062398918 -0.15786808)
(120.00626 -0.065210709 -0.16478447)
(119.98545 -0.10006696 -0.20882867)
(120.00225 -0.10376142 -0.16976686)
(120.04147 -0.097409089 -0.16623735)
(120.03141 -0.094920714 -0.20080725)
(120.08189 -0.08485781 -0.17697397)
(120.07657 -0.052587499 -0.13708025)
(120.07606 -0.026430718 -0.070043386)
(120.04769 -0.006441167 -0.025998574)
(120.0549 -0.0035054312 -0.031826507)
(120.07869 -0.015945396 -0.081852579)
(120.02375 -0.023874101 -0.11192457)
(120.01578 -0.0057608839 -0.11634305)
(119.95746 -0.0046999067 -0.11899971)
(119.88381 -0.014413952 -0.21041676)
(119.91967 -0.059711695 -0.21016831)
(119.99325 -0.054095347 -0.17911097)
(120.03114 -0.052753844 -0.17572345)
(120.0218 -0.037893519 -0.19108377)
(119.9789 -0.036528918 -0.19382862)
(119.9398 -0.063926533 -0.25812142)
(119.96332 -0.087912102 -0.23449235)
(120.01242 -0.085413378 -0.23324851)
(119.99635 -0.065003755 -0.25644586)
(119.97458 -0.039306305 -0.26845597)
(120.01146 -0.02178948 -0.1973913)
(119.96684 -0.020215456 -0.19469893)
(119.95988 -0.0032771763 -0.19656609)
(120.00596 -0.0039903693 -0.20004614)
(119.9648 -0.009840437 -0.27194337)
(119.90323 -0.0096745854 -0.26251327)
(119.91571 -0.036849109 -0.25999775)
(119.82288 -0.058044928 -0.33378162)
(119.86912 -0.096577251 -0.3306043)
(119.91032 -0.12773267 -0.29142452)
(119.94548 -0.14316348 -0.25375473)
(119.97633 -0.13696919 -0.19721648)
(120.02209 -0.13354284 -0.14465535)
(120.03933 -0.10899054 -0.088877574)
(120.03427 -0.07280068 -0.052977896)
(120.02139 -0.048520413 -0.027055395)
(119.98581 -0.050912187 -0.030889493)
(119.96139 -0.043696192 -0.026853701)
(119.89499 -0.077168138 -0.059219201)
(119.93462 -0.097319976 -0.070870457)
(119.8717 -0.14666645 -0.035799216)
(119.97284 -0.065164636 -0.016854389)
(119.94231 -0.053693797 -0.01365166)
(119.8262 -0.11226371 -0.027869701)
(119.58948 -0.17151763 -0.083380561)
(119.70914 -0.12396054 -0.10575818)
(119.81569 -0.086957748 -0.093581771)
(119.83374 -0.10483074 -0.11228989)
(119.72725 -0.11554282 -0.14247653)
(119.7084 -0.094876928 -0.12306326)
(119.51467 -0.16400594 -0.16888965)
(119.54508 -0.18290483 -0.18880739)
(119.72875 -0.14227399 -0.12736415)
(119.76185 -0.16065 -0.14039958)
(119.85832 -0.11150734 -0.11976575)
(119.88956 -0.13216917 -0.14154942)
(119.7962 -0.1567746 -0.19856487)
(119.76008 -0.12765739 -0.16197067)
(119.57718 -0.21842577 -0.22541813)
(119.62673 -0.26129741 -0.26860957)
(119.79855 -0.19557926 -0.17033664)
(119.69112 -0.28154689 -0.13753052)
(119.65128 -0.22642567 -0.10958686)
(119.61415 -0.19674491 -0.10004763)
(119.22725 -0.32338123 -0.17037352)
(119.18507 -0.28253225 -0.15590012)
(118.82068 -0.31261545 -0.080397749)
(119.47363 -0.16829735 -0.03272923)
(119.49595 -0.18090624 -0.039439164)
(118.85559 -0.34175118 -0.091098785)
(118.87237 -0.41686969 -0.11462009)
(119.27048 -0.39424219 -0.19561966)
(119.34144 -0.47675315 -0.24745071)
(118.89769 -0.52610861 -0.16444082)
(119.56533 -0.26856284 -0.060974117)
(119.534 -0.2070042 -0.043782051)
(119.51715 -0.22462024 0.013073069)
(119.86483 -0.1629902 0.019298162)
(119.97247 -0.071048289 0.0050238878)
(119.99883 -0.026798661 0.003715327)
(119.67317 -0.12380522 0.14281212)
(119.4632 -0.20387072 0.1868828)
(119.1243 -0.33176543 0.15844022)
(118.78575 -0.34128396 0.046194626)
(119.45931 -0.18199427 0.0094179126)
(119.81761 -0.12670747 0.012734837)
(119.9406 -0.059528614 0.0026853888)
(119.95912 -0.053783046 0.023694056)
(119.98562 -0.061057931 0.027728003)
(119.92695 -0.11886532 0.073152606)
(119.88406 -0.097264788 0.061257467)
(119.67893 -0.15406982 0.11258769)
(119.55917 -0.20182924 0.078129173)
(119.58169 -0.23165067 0.095209081)
(119.4803 -0.19661682 0.011201492)
(118.81576 -0.37715418 0.05085508)
(119.16107 -0.37953227 0.1750776)
(119.19918 -0.45822063 0.20405539)
(118.82573 -0.46114533 0.06761152)
(118.84443 -0.58151368 0.10783151)
(119.54713 -0.29223377 0.024956182)
(119.65558 -0.32495997 0.13474361)
(119.61854 -0.26420429 0.10553883)
(119.73139 -0.19653512 0.14969998)
(119.69727 -0.17588189 0.13559108)
(119.491 -0.22696987 0.20871475)
(119.69146 -0.14731551 0.16424457)
(119.88143 -0.064853432 0.091206645)
(119.79362 -0.11217535 0.104702)
(119.81217 -0.13236959 0.12517661)
(119.83857 -0.13948666 0.13317506)
(119.92566 -0.075576799 0.11272684)
(119.87134 -0.16250704 0.15701915)
(119.76788 -0.235887 0.18204609)
(119.56883 -0.31445947 0.29491795)
(119.26316 -0.548347 0.26085555)
(118.29239 -0.67511864 0.62771324)
(116.08491 -0.64574129 0.64238687)
(116.23895 -0.58643493 -0.76787891)
(118.46461 -0.56515951 -0.57534486)
(119.32065 -0.23909568 -0.47413585)
(119.68261 -0.12091729 -0.27324838)
(119.64527 -0.093998565 -0.21531864)
(119.52505 -0.01817755 -0.17228233)
(119.55266 -0.031039321 -0.23808613)
(118.83184 -0.12137014 -0.49059666)
(118.82155 -0.076723491 -0.37665518)
(119.2544 -0.18642997 -0.38797212)
(118.3197 -0.47131411 -0.47752765)
(116.15505 -0.47494845 -0.39447265)
(116.00898 -0.66336219 -0.54079902)
(104.18484 -1.6832443 -1.5676152)
(106.05741 -1.2540603 -1.1588061)
(116.31991 -0.45552284 -0.56958015)
(116.18682 -0.50764181 0.46514556)
(106.02276 -1.4363294 1.2739635)
(104.10977 -1.9424596 1.6790277)
(115.6941 -0.85941961 0.55372099)
(115.88813 -0.65258335 0.43554308)
(118.1688 -0.56729521 0.5176159)
(119.16363 -0.22727278 0.43295484)
(119.5209 -0.26752153 0.24831967)
(119.72586 -0.16031897 0.1851266)
(119.76225 -0.19197354 0.22431168)
(119.63384 -0.14887046 0.31240488)
(119.22662 -0.2831931 0.52050025)
(118.69817 -0.1764021 0.55139119)
(118.70338 -0.12471882 0.43883898)
(119.46697 -0.042290803 0.21383409)
(119.8539 -0.032284072 0.15590686)
(119.59719 -0.12042061 0.2517003)
(119.49103 -0.058375705 0.279416)
(119.603 -0.071951309 0.35919278)
(118.77098 -0.25300363 0.70836691)
(115.51573 -1.1008139 0.93493393)
(101.76343 -2.6498586 2.2163422)
(101.86102 -2.2693322 -2.14615)
(115.90457 -0.91339397 -0.90123566)
(118.91312 -0.19213379 -0.64531237)
(119.65988 -0.044770669 -0.31188739)
(119.77805 -0.13547402 -0.31672624)
(119.87556 -0.16625757 -0.22383728)
(119.94715 -0.1320105 -0.14219619)
(119.98485 -0.11000612 -0.097007394)
(120.00076 -0.076385267 -0.054683802)
(119.98773 -0.10936395 -0.055809335)
(120.03545 -0.099039677 -0.055193126)
(120.01961 -0.13757523 -0.086594507)
(119.95977 -0.16812783 -0.1063054)
(120.003 -0.16690903 -0.12039747)
(120.04209 -0.16319918 -0.11468815)
(120.04701 -0.13216358 -0.082578842)
(120.04224 -0.16077692 -0.081221758)
(120.00744 -0.16788869 -0.083599324)
(119.98652 -0.20996012 -0.11891883)
(120.03225 -0.20154104 -0.11444169)
(120.08274 -0.17749644 -0.10535305)
(120.08534 -0.14211513 -0.10186367)
(120.0932 -0.077296287 -0.065114241)
(120.06445 -0.052068633 -0.038284831)
(120.05101 -0.027158939 -0.014296565)
(120.0782 -0.020174598 -0.015857156)
(120.12131 -0.028524135 -0.028957751)
(120.12377 -0.056535236 -0.039903532)
(120.10377 -0.032396872 -0.020190484)
(120.07948 -0.072090981 -0.041595294)
(120.07708 -0.1134978 -0.071327661)
(120.10615 -0.085596356 -0.055918974)
(120.12832 -0.10991763 -0.081773511)
(120.13508 -0.1404441 -0.087257608)
(120.11438 -0.10905104 -0.058635907)
(120.07851 -0.13991492 -0.071572709)
(120.07486 -0.16155746 -0.066037191)
(120.08334 -0.091115198 -0.032768279)
(120.0616 -0.04004951 -0.012017424)
(120.01909 -0.066906451 -0.01623545)
(119.97161 -0.12766631 -0.039337136)
(120.02649 -0.12215118 -0.041265106)
(119.99494 -0.18698764 -0.07366955)
(119.92122 -0.22068637 -0.079628623)
(119.96513 -0.24125472 -0.10850961)
(120.01387 -0.23999841 -0.10694258)
(120.03304 -0.18366226 -0.072940285)
(120.024 -0.20581076 -0.05909526)
(119.98064 -0.20869661 -0.057121055)
(119.94245 -0.27203243 -0.086594604)
(119.99849 -0.26998167 -0.088471271)
(119.97691 -0.29240195 -0.063714509)
(120.01393 -0.21960735 -0.042776999)
(120.01911 -0.13759286 -0.022065152)
(119.95818 -0.14059627 -0.020391127)
(119.88455 -0.23821466 -0.036872056)
(119.96885 -0.21667112 -0.040735102)
(119.91854 -0.28381003 -0.060552835)
(119.9042 -0.29903739 -0.032509328)
(119.96061 -0.22879666 -0.02171849)
(120.00794 -0.2323099 -0.022935085)
(119.96612 -0.30798729 -0.033359383)
(120.03864 -0.291594 -0.033499953)
(120.04826 -0.27374071 -0.063938831)
(120.06243 -0.24807023 -0.085940197)
(120.07389 -0.21694122 -0.10123184)
(120.13644 -0.17443732 -0.085628977)
(120.11661 -0.12776407 -0.054730613)
(120.11794 -0.14809316 -0.04759639)
(120.07008 -0.1833371 -0.054508441)
(120.06425 -0.19819551 -0.040871434)
(120.08516 -0.10689556 -0.019837026)
(120.1286 -0.051107122 -0.014044436)
(120.11756 -0.040828493 -0.01598367)
(120.1454 -0.084312417 -0.039221564)
(120.13819 -0.071385417 -0.041604062)
(120.14974 -0.025284847 -0.021218667)
(120.13093 -0.017117832 -0.017574966)
(120.16839 -0.022003454 -0.026006507)
(120.15617 -0.070063267 -0.056722366)
(120.1727 -0.089374666 -0.059746967)
(120.19175 -0.0348281 -0.030787666)
(120.21108 -0.04595104 -0.032849386)
(120.16103 -0.030870018 -0.020003135)
(120.17314 -0.038877618 -0.021652501)
(120.15251 -0.099762439 -0.036618264)
(120.19091 -0.13652717 -0.058465796)
(120.18421 -0.113336 -0.061892747)
(120.1875 -0.16101615 -0.094746334)
(120.18427 -0.14275251 -0.092583841)
(120.17623 -0.12344278 -0.088992171)
(120.18121 -0.083170278 -0.072027095)
(120.16672 -0.03002038 -0.042109972)
(120.11958 -0.01667369 -0.034189524)
(120.07565 -0.0056187526 -0.022590455)
(120.06252 -0.02671794 -0.054550136)
(120.09221 -0.052050525 -0.083153606)
(120.07544 -0.054350832 -0.11469923)
(120.10388 -0.038909823 -0.086828817)
(120.11165 -0.039399665 -0.10623245)
(120.13373 -0.065882679 -0.14000747)
(120.12715 -0.063537839 -0.1133484)
(120.08456 -0.084194671 -0.14549074)
(120.0848 -0.1188901 -0.1795985)
(120.11344 -0.098755148 -0.11063853)
(120.14176 -0.090461947 -0.13941812)
(120.12471 -0.10379742 -0.18279783)
(120.09596 -0.11632619 -0.20381762)
(120.06537 -0.12465186 -0.21796597)
(120.00596 -0.14707605 -0.25677072)
(120.02699 -0.13635759 -0.19767205)
(120.00937 -0.19593889 -0.24508018)
(119.94118 -0.19923321 -0.23835006)
(119.90052 -0.21126456 -0.31412691)
(119.98127 -0.21321033 -0.31991771)
(119.92449 -0.31345933 -0.38873694)
(119.97445 -0.26722976 -0.27832026)
(120.01001 -0.23663041 -0.21004341)
(120.02764 -0.19198168 -0.15268886)
(119.97719 -0.19192146 -0.15261505)
(119.87769 -0.21985537 -0.18096388)
(119.94211 -0.23042346 -0.21224631)
(119.9039 -0.30993786 -0.22667101)
(119.94739 -0.25251851 -0.16134109)
(120.00727 -0.25495705 -0.16587551)
(119.98359 -0.31498494 -0.22969075)
(119.92761 -0.38099324 -0.3266129)
(119.83153 -0.36418745 -0.30042443)
(119.89662 -0.25618066 -0.26634654)
(119.72311 -0.31073293 -0.31874563)
(119.82754 -0.28781797 -0.37058746)
(119.72935 -0.4241683 -0.43226005)
(119.85892 -0.44900529 -0.45865755)
(119.99806 -0.38797617 -0.3997044)
(120.01653 -0.32887812 -0.37632835)
(120.03506 -0.26700389 -0.33500106)
(120.04759 -0.2227123 -0.30695294)
(120.05705 -0.17937018 -0.27480092)
(120.0613 -0.15154319 -0.24902613)
(120.09859 -0.14086761 -0.23348525)
(120.09394 -0.14353217 -0.26483634)
(120.09302 -0.11645109 -0.22946985)
(120.05646 -0.12413696 -0.2449962)
(120.05293 -0.15414112 -0.28332643)
(120.04494 -0.19014715 -0.3172458)
(120.09115 -0.18159967 -0.30060214)
(120.09863 -0.16999592 -0.25923614)
(120.08475 -0.17505969 -0.22569926)
(120.16423 -0.13709734 -0.18129613)
(120.13748 -0.15274474 -0.23477412)
(120.13222 -0.12635069 -0.20896766)
(120.16588 -0.10559077 -0.17884301)
(120.15287 -0.085517339 -0.1544699)
(120.15721 -0.087352642 -0.17614319)
(120.12483 -0.10365199 -0.20673874)
(120.1304 -0.12819376 -0.23771538)
(120.16822 -0.10964509 -0.2053824)
(120.17918 -0.14038817 -0.2362899)
(120.17677 -0.12856029 -0.20091879)
(120.1914 -0.16078758 -0.22841012)
(120.14449 -0.18962471 -0.26510185)
(120.09824 -0.20942056 -0.29191034)
(120.08919 -0.22107721 -0.34008419)
(120.03462 -0.23438253 -0.35953366)
(120.01538 -0.28786398 -0.39740815)
(120.07836 -0.27822132 -0.38125568)
(120.09133 -0.2563306 -0.32130296)
(120.07211 -0.25189437 -0.26446008)
(120.08505 -0.21640152 -0.19037585)
(120.0852 -0.17338894 -0.13588049)
(120.14218 -0.13293201 -0.10852437)
(120.16425 -0.17089603 -0.15427983)
(120.13766 -0.22876103 -0.17269373)
(120.13243 -0.20479119 -0.14672627)
(120.12523 -0.1803349 -0.12447857)
(120.09655 -0.20148274 -0.13639165)
(120.06613 -0.21565093 -0.14406111)
(120.06205 -0.24523132 -0.17015227)
(120.09902 -0.22953368 -0.16035235)
(120.09455 -0.26308702 -0.16438328)
(120.09365 -0.22954193 -0.13773405)
(120.05732 -0.24511394 -0.14472809)
(120.05406 -0.28169925 -0.17406394)
(120.04667 -0.31410566 -0.20926425)
(120.05807 -0.26948934 -0.19712905)
(120.09927 -0.25363971 -0.1888012)
(120.09908 -0.28431697 -0.22716172)
(120.04896 -0.2998721 -0.23908024)
(120.03715 -0.35442263 -0.25211005)
(120.09076 -0.33455654 -0.24028623)
(120.0922 -0.29716741 -0.20178527)
(120.13579 -0.26956862 -0.18482526)
(120.13061 -0.23588324 -0.15020316)
(120.12527 -0.20681567 -0.12574823)
(120.15766 -0.17630691 -0.11041601)
(120.15347 -0.15204061 -0.1070462)
(120.16595 -0.17459244 -0.1271106)
(120.1682 -0.20356724 -0.13293042)
(120.17903 -0.23252148 -0.16383831)
(120.17671 -0.19466811 -0.14999304)
(120.19131 -0.2195839 -0.18189471)
(120.14481 -0.25686398 -0.20880424)
(120.14024 -0.30412695 -0.22128502)
(120.19191 -0.26347951 -0.19678389)
(120.23756 -0.21330465 -0.16359642)
(120.2302 -0.17746919 -0.14973182)
(120.22147 -0.10514449 -0.10012175)
(120.25105 -0.026986903 -0.040030697)
(120.20046 -0.021869783 -0.031198453)
(120.20767 -0.054804176 -0.048965276)
(120.19606 -0.086850016 -0.066971002)
(120.21764 -0.10047112 -0.080265787)
(120.19373 -0.14010606 -0.10487475)
(120.20041 -0.16279524 -0.11041561)
(120.22785 -0.1208924 -0.088064052)
(120.20732 -0.10375945 -0.072637456)
(120.22202 -0.066010981 -0.052355213)
(120.23005 -0.02368938 -0.028786074)
(120.21332 -0.016145831 -0.023693637)
(120.23977 -0.018676042 -0.028431207)
(120.23236 -0.060707411 -0.056807716)
(120.24618 -0.07265886 -0.060775455)
(120.25638 -0.02743003 -0.034762619)
(120.28513 -0.028728971 -0.039811859)
(120.26396 -0.01822408 -0.031005419)
(120.255 -0.067204104 -0.065078778)
(120.23748 -0.11148931 -0.093847685)
(120.20899 -0.15735625 -0.12309151)
(120.21781 -0.18793699 -0.13581094)
(120.25025 -0.13785063 -0.10763061)
(120.27645 -0.15632636 -0.12948446)
(120.26411 -0.12603832 -0.11376925)
(120.28594 -0.076516732 -0.077763649)
(120.29674 -0.019056198 -0.035456195)
(120.31835 -0.029992621 -0.04640584)
(120.30362 -0.094119788 -0.087050179)
(120.2728 -0.083821764 -0.073199009)
(120.28688 -0.10214426 -0.083135659)
(120.25787 -0.087474062 -0.067954812)
(120.23086 -0.076066462 -0.05519034)
(120.21364 -0.11838588 -0.075043591)
(120.23568 -0.14230717 -0.09413189)
(120.20446 -0.18929226 -0.11739282)
(120.16782 -0.23458677 -0.13787053)
(120.1581 -0.19787916 -0.11106773)
(120.12214 -0.23058926 -0.1252614)
(120.08718 -0.25506889 -0.13543898)
(120.04867 -0.26891565 -0.14084672)
(119.97583 -0.31123884 -0.15639841)
(119.91428 -0.29543023 -0.14788205)
(119.78665 -0.32316722 -0.15380378)
(119.85297 -0.36979437 -0.22257216)
(119.93275 -0.39966239 -0.23292749)
(119.88066 -0.47770355 -0.2091525)
(119.94616 -0.36030155 -0.13392575)
(119.87578 -0.34193761 -0.1198015)
(119.78535 -0.44390622 -0.18981488)
(119.62522 -0.57002494 -0.26800694)
(119.7454 -0.45071286 -0.30678027)
(119.4718 -0.55317726 -0.3218975)
(119.58546 -0.53257685 -0.47537688)
(119.71739 -0.61502233 -0.5187913)
(119.83877 -0.5034201 -0.34688609)
(119.73692 -0.6301913 -0.33241303)
(119.54351 -0.80490166 -0.53815448)
(119.36418 -0.71413382 -0.46176061)
(119.00362 -0.75524709 -0.44817592)
(119.45645 -0.60784992 -0.21618661)
(119.70416 -0.46253289 -0.14024623)
(119.83091 -0.3562717 -0.083477097)
(119.67344 -0.34024475 -0.074804808)
(119.80443 -0.37981711 -0.045432999)
(119.88198 -0.42043489 -0.049968002)
(119.9045 -0.39462577 -0.095877003)
(119.80132 -0.53425115 -0.15747093)
(119.75527 -0.57745377 -0.08010703)
(119.64929 -0.50458818 -0.075846797)
(119.33069 -0.69788169 -0.12457686)
(118.99303 -0.67461657 -0.23753595)
(118.60159 -0.95474808 -0.32047261)
(118.81638 -1.1830758 -0.32891689)
(119.17429 -0.9919854 -0.51935584)
(119.56125 -0.73280126 -0.2714949)
(119.44548 -0.82140201 -0.14574374)
(119.69727 -0.77116201 -0.15926722)
(119.74644 -0.73477907 -0.22138695)
(119.80386 -0.6784657 -0.26360517)
(119.86785 -0.6312646 -0.29380675)
(119.91795 -0.56687997 -0.31129688)
(119.95848 -0.5109976 -0.31845776)
(119.99072 -0.44576752 -0.31117981)
(120.01873 -0.39058361 -0.30429267)
(120.03663 -0.326396 -0.2820336)
(120.09246 -0.31187941 -0.27283545)
(120.08544 -0.35170376 -0.32850015)
(120.01786 -0.36600788 -0.34220534)
(119.99873 -0.43843302 -0.36751518)
(120.07218 -0.41765968 -0.35364788)
(120.08071 -0.37358515 -0.29620512)
(120.1416 -0.34245805 -0.27332015)
(120.14572 -0.28360562 -0.24979852)
(120.17667 -0.20010285 -0.21496179)
(120.14521 -0.23161418 -0.29403717)
(120.2 -0.19801475 -0.25441281)
(120.20185 -0.22072464 -0.3070263)
(120.1919 -0.17342868 -0.26986978)
(120.13947 -0.2001656 -0.31014484)
(120.13544 -0.16309005 -0.2732379)
(120.12849 -0.16688295 -0.31076773)
(120.1258 -0.13090464 -0.26837824)
(120.12148 -0.10187799 -0.22742895)
(120.13485 -0.061611152 -0.1673925)
(120.11337 -0.033844279 -0.11989134)
(120.0725 -0.045504035 -0.15366055)
(120.06722 -0.032970885 -0.16867494)
(120.11396 -0.025652793 -0.13314611)
(120.13179 -0.049837974 -0.18930121)
(120.06062 -0.061166032 -0.23411459)
(120.07261 -0.078457292 -0.21007296)
(120.04718 -0.1191921 -0.26598488)
(119.97269 -0.13531941 -0.3076891)
(119.94081 -0.1101788 -0.34963415)
(119.86706 -0.1871528 -0.4724425)
(119.92593 -0.21433919 -0.40035676)
(119.84486 -0.20545307 -0.36936968)
(119.7691 -0.16818154 -0.43722165)
(119.68087 -0.1140147 -0.44236816)
(119.77915 -0.13071961 -0.51704784)
(119.897 -0.069571702 -0.37245258)
(119.87625 -0.022130761 -0.38150953)
(119.799 -0.018917719 -0.34100122)
(119.62651 -0.042537901 -0.46372187)
(119.73288 -0.045991053 -0.53865585)
(119.37691 -0.10068694 -0.78613742)
(119.50396 -0.24657109 -0.72495223)
(119.70761 -0.31405102 -0.63224786)
(119.82606 -0.33206257 -0.50867317)
(119.73239 -0.29291016 -0.45403165)
(119.44753 -0.31230817 -0.5546312)
(119.59439 -0.24777086 -0.56954937)
(119.31574 -0.44576622 -0.7195842)
(119.57224 -0.46737527 -0.53932073)
(119.70372 -0.5072861 -0.62378992)
(119.49909 -0.52158265 -0.81251182)
(119.06073 -0.49516825 -0.99477521)
(118.89698 -0.42762065 -0.74263408)
(119.40507 -0.19092986 -0.59357877)
(119.27061 -0.081833742 -0.65866561)
(118.42673 -0.24743153 -0.91864703)
(118.63364 -0.25283205 -1.1538511)
(119.12125 -0.28886256 -1.1236147)
(119.4408 -0.19330672 -0.9236925)
(119.64426 -0.12390084 -0.74405119)
(119.78739 -0.088079571 -0.62123563)
(119.87483 -0.059156628 -0.50929672)
(119.93637 -0.043008149 -0.43106119)
(119.9732 -0.029243557 -0.35109856)
(120.03705 -0.0092191525 -0.25472774)
(120.05688 -0.0030837331 -0.17978918)
(120.07866 -0.0042214487 -0.087842637)
(120.11735 -0.00034668587 -0.034373751)
(120.1102 -0.00076499669 -0.03285719)
(120.09871 -0.0063732842 -0.03072491)
(120.12085 -0.023378468 -0.05786417)
(120.12714 -0.0018728414 -0.018475202)
(120.14453 -0.0030018464 -0.022673891)
(120.13443 -0.022695599 -0.068628056)
(120.17046 -0.037771914 -0.088829473)
(120.15433 -0.038481767 -0.073593339)
(120.16556 -0.0081046523 -0.025430872)
(120.1878 -0.0089316221 -0.034181033)
(120.20588 -0.007566395 -0.038124403)
(120.1545 -8.325417e-06 -0.023399886)
(120.14088 -0.018526975 -0.076558956)
(120.14674 -0.014879563 -0.084987234)
(120.16451 -0.00058063193 -0.024347574)
(120.21905 -0.0073369589 -0.042681818)
(120.18748 -0.031054457 -0.12102843)
(120.18151 -0.036810767 -0.10582069)
(120.18677 -0.069198407 -0.15725247)
(120.1836 -0.068696621 -0.14243289)
(120.17541 -0.066951701 -0.12593561)
(120.18042 -0.053342973 -0.089947561)
(120.19871 -0.012198046 -0.028564513)
(120.20567 -0.026026063 -0.057132374)
(120.1947 -0.044219964 -0.089193514)
(120.20604 -0.047826388 -0.10315169)
(120.22745 -0.062085298 -0.12227818)
(120.2171 -0.056735081 -0.10474941)
(120.19357 -0.082455042 -0.14448625)
(120.20044 -0.085748477 -0.16442877)
(120.21825 -0.11039627 -0.1916376)
(120.20916 -0.10038406 -0.16389421)
(120.22142 -0.081317359 -0.1164302)
(120.25039 -0.019815503 -0.038811641)
(120.25445 -0.039827223 -0.073866061)
(120.2312 -0.032684227 -0.064977158)
(120.23772 -0.0039141174 -0.022790176)
(120.2104 -0.00068236611 -0.018321024)
(120.22666 -0.0033132627 -0.02268592)
(120.21989 -0.027102037 -0.065188852)
(120.24501 -0.033742481 -0.073704158)
(120.25396 -0.0071956097 -0.028271407)
(120.28353 -0.0097090512 -0.031626305)
(120.26254 -0.005004467 -0.024768162)
(120.29592 -0.0077877464 -0.029152931)
(120.28588 -0.051352269 -0.086524269)
(120.26437 -0.088830467 -0.13575748)
(120.23737 -0.069601587 -0.11803387)
(120.25049 -0.080291876 -0.1413147)
(120.27708 -0.10094093 -0.16289287)
(120.23813 -0.13766627 -0.21988474)
(120.23055 -0.12689588 -0.18684709)
(120.24538 -0.15725157 -0.20887837)
(120.25483 -0.12236731 -0.13962846)
(120.29784 -0.031724244 -0.050895699)
(120.31101 -0.062270127 -0.096824652)
(120.28516 -0.11072964 -0.15263176)
(120.30417 -0.12930361 -0.18707718)
(120.25741 -0.1764693 -0.25182469)
(120.27831 -0.21855743 -0.2865826)
(120.26737 -0.19691222 -0.23905607)
(120.21211 -0.24662366 -0.29107288)
(120.14725 -0.2847001 -0.33219146)
(120.0844 -0.31333516 -0.36312988)
(120.06954 -0.336762 -0.42768256)
(119.99507 -0.35266668 -0.44732638)
(119.9659 -0.42550764 -0.48446898)
(120.0484 -0.41549415 -0.46989886)
(120.07164 -0.37554863 -0.38907308)
(120.05047 -0.45743368 -0.4311967)
(119.96875 -0.47397824 -0.43903378)
(119.92738 -0.51932059 -0.53204183)
(120.02387 -0.50212794 -0.51738646)
(120.11667 -0.46798367 -0.48683248)
(120.13182 -0.38391925 -0.43850663)
(120.13863 -0.30858052 -0.39460158)
(120.14026 -0.25298203 -0.35101362)
(120.12658 -0.26717629 -0.40860331)
(120.1296 -0.21097563 -0.35736398)
(120.07054 -0.22873913 -0.38909102)
(120.07733 -0.18217694 -0.33981281)
(120.08374 -0.1439286 -0.29757994)
(120.08615 -0.11298078 -0.25203821)
(120.07873 -0.10716106 -0.27505763)
(120.03516 -0.11195202 -0.29054003)
(120.02569 -0.14732362 -0.34361574)
(120.04004 -0.1524512 -0.3136856)
(120.02739 -0.18858684 -0.35311102)
(120.0074 -0.18545241 -0.39228021)
(120.06264 -0.18098654 -0.37731979)
(120.07412 -0.13977301 -0.32508457)
(120.11866 -0.12789003 -0.29523206)
(120.11732 -0.097056677 -0.24948278)
(120.15737 -0.083797105 -0.21455771)
(120.15754 -0.0865497 -0.19448064)
(120.16778 -0.11289774 -0.23292924)
(120.1655 -0.11194858 -0.25762599)
(120.1593 -0.1082198 -0.28475351)
(120.15402 -0.078882086 -0.23173496)
(120.1107 -0.090073396 -0.2678278)
(120.06917 -0.098002806 -0.29409481)
(120.02441 -0.10120399 -0.30742497)
(120.00921 -0.085794894 -0.32627517)
(120.05805 -0.084822042 -0.31254213)
(120.04439 -0.11563751 -0.3771255)
(120.0591 -0.1304949 -0.35412514)
(120.00932 -0.13581392 -0.36923307)
(119.98984 -0.11847718 -0.39334946)
(119.95599 -0.15405624 -0.45735247)
(119.98391 -0.17308948 -0.42416499)
(120.04063 -0.17127369 -0.4139304)
(120.01772 -0.15622844 -0.44727627)
(119.98705 -0.20982229 -0.53174612)
(120.01968 -0.22474126 -0.4859391)
(120.05088 -0.23185581 -0.43755017)
(119.98504 -0.24099525 -0.45579178)
(120.01201 -0.23899205 -0.40399965)
(119.98417 -0.2937221 -0.45090006)
(120.0532 -0.2878511 -0.44042548)
(120.02462 -0.29689783 -0.50154597)
(119.94712 -0.29970134 -0.51446757)
(119.90629 -0.38621007 -0.5914826)
(119.95547 -0.36925242 -0.51136155)
(120.03645 -0.35831926 -0.49868555)
(119.99959 -0.37663387 -0.574019)
(120.08942 -0.35593946 -0.53899208)
(120.10425 -0.2785674 -0.46917443)
(120.11362 -0.21609795 -0.40521281)
(120.11781 -0.16717401 -0.34754179)
(120.17288 -0.14772057 -0.30467079)
(120.17769 -0.14519821 -0.27047202)
(120.18859 -0.18490516 -0.3131621)
(120.18033 -0.19253567 -0.35802425)
(120.16427 -0.19431966 -0.40602549)
(120.1626 -0.14547038 -0.3402187)
(120.10211 -0.16159614 -0.38437551)
(120.1084 -0.12175801 -0.32376261)
(120.09547 -0.10894985 -0.3478963)
(120.10227 -0.078421286 -0.28660871)
(120.14914 -0.070119775 -0.25007232)
(120.15085 -0.09873671 -0.30846122)
(120.14829 -0.13721148 -0.37517785)
(120.08223 -0.14925189 -0.41941971)
(120.0601 -0.20308256 -0.50293506)
(120.09047 -0.21381374 -0.45426688)
(120.0704 -0.28175402 -0.53340561)
(119.97922 -0.29339956 -0.56418156)
(119.89995 -0.29113985 -0.5681631)
(119.95225 -0.23007442 -0.49736102)
(119.91151 -0.21083718 -0.54411292)
(119.86353 -0.18002419 -0.57390311)
(119.9231 -0.12809786 -0.47862083)
(119.96796 -0.097133122 -0.40978183)
(119.99479 -0.069279844 -0.33636179)
(120.04601 -0.038204051 -0.2493015)
(120.06093 -0.019554357 -0.17610945)
(120.11152 -0.015067613 -0.14066033)
(120.10967 -0.0023133824 -0.14496517)
(120.11884 -0.0074538636 -0.21294586)
(120.12447 -0.032051428 -0.20565864)
(120.18818 -0.020639119 -0.1340376)
(120.14801 -0.0078695129 -0.090192129)
(120.16872 0.0014973061 -0.025126455)
(120.1713 0.0013457796 -0.026197685)
(120.14868 -0.00097088961 -0.093579123)
(120.18665 -0.0040887661 -0.14101494)
(120.22862 0.00042518094 -0.051570098)
(120.22636 -0.0048297392 -0.047813664)
(120.25082 -0.024754925 -0.10527525)
(120.24931 -0.028595537 -0.096934426)
(120.24367 -0.028981872 -0.086953464)
(120.2385 -0.029570714 -0.079700814)
(120.22847 -0.027866414 -0.07139134)
(120.21225 -0.048365911 -0.11410921)
(120.21929 -0.048745059 -0.12715415)
(120.1903 -0.068193861 -0.17432971)
(120.20644 -0.091487966 -0.20845686)
(120.20454 -0.09073381 -0.18711029)
(120.23543 -0.065776963 -0.13946997)
(120.24176 -0.067887392 -0.15632336)
(120.26664 -0.041039593 -0.094717035)
(120.25662 -0.038194341 -0.083912777)
(120.26812 -0.0094758979 -0.031341324)
(120.23714 -0.0040020704 -0.023941407)
(120.2493 -0.0064329276 -0.026506775)
(120.28087 -0.012945855 -0.035808242)
(120.29103 -0.01630887 -0.041319001)
(120.25656 -0.0075425546 -0.028817909)
(120.26463 -0.0095384062 -0.033554066)
(120.2992 -0.019254976 -0.04938237)
(120.27853 -0.043403581 -0.1215535)
(120.27374 -0.043444148 -0.10745796)
(120.2448 -0.068452304 -0.17552843)
(120.22198 -0.047239013 -0.13863049)
(120.18975 -0.064798519 -0.1890899)
(120.18855 -0.058723707 -0.20573632)
(120.22441 -0.044027884 -0.15244369)
(120.24541 -0.065569484 -0.19455817)
(120.20073 -0.083977863 -0.25449335)
(120.2049 -0.090318022 -0.23228763)
(120.21969 -0.12302976 -0.28224972)
(120.22351 -0.12211539 -0.2502027)
(120.22264 -0.11756057 -0.22039983)
(120.25998 -0.08616224 -0.16346555)
(120.26667 -0.091731429 -0.18711631)
(120.29499 -0.12206181 -0.222629)
(120.28798 -0.11163253 -0.19119642)
(120.24245 -0.15095575 -0.25682246)
(120.24165 -0.16074939 -0.29627547)
(120.23437 -0.16626769 -0.34014306)
(120.29655 -0.13029537 -0.25923726)
(120.26919 -0.095065964 -0.2134976)
(120.2676 -0.094857892 -0.24227295)
(120.21143 -0.1189374 -0.31526883)
(120.21994 -0.16643216 -0.38728476)
(120.14156 -0.18901524 -0.45519232)
(120.11099 -0.17095511 -0.5066136)
(120.12925 -0.12050322 -0.40985842)
(120.13931 -0.084996114 -0.33292013)
(120.14266 -0.059076618 -0.26459263)
(120.09291 -0.065234399 -0.30085231)
(120.0455 -0.069305708 -0.32621164)
(120.03451 -0.050051312 -0.33760254)
(119.98133 -0.04957648 -0.34731754)
(119.94962 -0.071896213 -0.42427829)
(120.00929 -0.071443863 -0.41390159)
(120.02426 -0.095968357 -0.39916989)
(120.08027 -0.092368983 -0.37153595)
(120.0661 -0.068796817 -0.38846844)
(120.08355 -0.046805116 -0.31330753)
(120.13569 -0.043005219 -0.27781058)
(120.12823 -0.064169274 -0.35088554)
(120.11833 -0.039575892 -0.36498748)
(120.13035 -0.025859424 -0.28553915)
(120.07683 -0.02814425 -0.32017126)
(120.0265 -0.029483503 -0.34356931)
(120.02202 -0.005860519 -0.34487964)
(119.96802 -0.005795654 -0.3519879)
(119.92916 -0.01086463 -0.43276658)
(119.9895 -0.010747279 -0.42647495)
(119.99565 -0.042878011 -0.42436687)
(120.05447 -0.042127494 -0.40087122)
(120.04848 -0.0099400663 -0.40404675)
(120.0728 -0.0049364315 -0.32209845)
(120.12698 -0.0043017007 -0.288032)
(120.11319 -0.0089706105 -0.36885241)