/*--------------------------------*- C++ -*----------------------------------*\
  =========                 |
  \\      /  F ield         | OpenFOAM: The Open Source CFD Toolbox
   \\    /   O peration     | Website:  https://openfoam.org
    \\  /    A nd           | Version:  7
     \\/     M anipulation  |
\*---------------------------------------------------------------------------*/
FoamFile
{
    version     2.0;
    format      ascii;
    class       volScalarField;
    location    "500";
    object      rho;
}
// * * * * * * * * * * * * * * * * * * * * * * * * * * * * * * * * * * * * * //

dimensions      [1 -3 0 0 0 0 0];

internalField   nonuniform List<scalar> 
24866
(
1.1739062
1.1739055
1.1739057
1.1739059
1.173906
1.1739059
1.173906
1.173906
1.173906
1.173906
1.173906
1.173906
1.173906
1.173906
1.173906
1.1739061
1.1739059
1.173906
1.173906
1.1739059
1.173906
1.173906
1.1739061
1.173906
1.1739059
1.173906
1.173906
1.1739061
1.1739061
1.1739061
1.173906
1.1739061
1.1739061
1.173906
1.1739061
1.1739061
1.1739061
1.173906
1.173906
1.173906
1.1739061
1.1739061
1.1739061
1.173906
1.173906
1.173906
1.173906
1.173906
1.1739061
1.1739061
1.173906
1.1739061
1.1739061
1.1739061
1.1739061
1.173906
1.173906
1.1739061
1.173906
1.173906
1.1739064
1.1739066
1.1739063
1.1739063
1.1739066
1.1739068
1.1739064
1.1739064
1.1739066
1.1739066
1.1739066
1.1739066
1.1739064
1.1739064
1.1739068
1.1739066
1.1739063
1.1739063
1.1739066
1.1739063
1.1739063
1.1739065
1.1739067
1.1739069
1.173907
1.1739065
1.1739064
1.1739065
1.1739064
1.1739065
1.173907
1.1739071
1.1739082
1.1739081
1.1739079
1.1739075
1.173907
1.1739078
1.1739071
1.1739076
1.1739084
1.1739093
1.1739084
1.1739089
1.1739093
1.1739093
1.173909
1.173908
1.1739076
1.1739068
1.1739066
1.1739064
1.1739064
1.1739067
1.1739071
1.1739078
1.1739085
1.1739093
1.17391
1.1739104
1.1739104
1.17391
1.1739108
1.17391
1.173909
1.173908
1.1739071
1.1739073
1.1739083
1.1739093
1.1739104
1.1739113
1.1739118
1.1739113
1.1739113
1.1739109
1.17391
1.173909
1.1739085
1.1739076
1.1739071
1.1739066
1.1739064
1.1739064
1.1739063
1.1739062
1.1739063
1.1739059
1.173906
1.173906
1.1739059
1.173906
1.1739058
1.1739059
1.1739058
1.1739058
1.1739059
1.173906
1.1739059
1.1739058
1.1739056
1.1739057
1.1739059
1.1739058
1.1739059
1.1739059
1.1739058
1.173906
1.1739059
1.1739059
1.1739059
1.173906
1.173906
1.1739059
1.1739059
1.1739059
1.173906
1.1739058
1.1739063
1.1739063
1.1739062
1.1739061
1.1739065
1.1739063
1.1739065
1.1739066
1.1739072
1.1739071
1.1739078
1.1739071
1.1739076
1.173908
1.1739071
1.1739073
1.1739082
1.1739093
1.1739104
1.1739113
1.1739118
1.1739118
1.1739119
1.1739113
1.1739104
1.1739093
1.1739082
1.173908
1.173907
1.1739068
1.1739068
1.1739066
1.1739065
1.1739059
1.1739059
1.173906
1.1739059
1.1739056
1.1739058
1.1739057
1.1739056
1.1739058
1.1739057
1.1739057
1.1739058
1.1739058
1.1739058
1.1739057
1.1739055
1.1739056
1.1739057
1.1739055
1.1739057
1.1739057
1.1739056
1.1739058
1.1739056
1.1739056
1.1739057
1.1739057
1.1739057
1.1739057
1.1739056
1.1739056
1.1739058
1.1739053
1.173905
1.1739051
1.1739051
1.173905
1.1739055
1.1739058
1.173906
1.173906
1.1739059
1.173906
1.173906
1.173906
1.173906
1.1739059
1.173906
1.1739061
1.1739059
1.173906
1.173906
1.1739059
1.1739059
1.1739058
1.1739059
1.1739059
1.1739058
1.1739058
1.1739059
1.173906
1.1739059
1.1739058
1.1739059
1.1739063
1.1739063
1.1739063
1.1739064
1.1739066
1.1739065
1.1739068
1.1739066
1.1739066
1.1739065
1.1739066
1.1739072
1.1739071
1.1739082
1.1739093
1.1739104
1.1739113
1.1739108
1.1739113
1.1739113
1.1739108
1.17391
1.173909
1.1739084
1.1739093
1.17391
1.1739104
1.1739104
1.17391
1.1739093
1.17391
1.173909
1.1739079
1.173907
1.1739068
1.1739076
1.1739084
1.1739078
1.1739085
1.173909
1.1739093
1.1739093
1.173909
1.1739085
1.1739076
1.173908
1.1739083
1.1739083
1.1739081
1.1739077
1.1739071
1.1739067
1.1739071
1.1739066
1.1739064
1.1739064
1.1739062
1.1739064
1.1739063
1.1739062
1.1739066
1.1739065
1.1739063
1.1739063
1.1739056
1.1739058
1.1739056
1.1739056
1.1739057
1.1739065
1.1739064
1.1739068
1.1739068
1.1739063
1.1739066
1.1739065
1.1739064
1.1739065
1.1739057
1.1739058
1.1739058
1.1739058
1.1739057
1.1739057
1.1739053
1.1739054
1.1739051
1.1739053
1.1739053
1.1739051
1.1739054
1.1739053
1.1739052
1.1739053
1.1739053
1.1739053
1.1739053
1.1739051
1.1739052
1.1739053
1.173905
1.1739052
1.1739052
1.173905
1.1739053
1.1739052
1.1739051
1.1739052
1.1739053
1.1739053
1.1739052
1.1739051
1.1739052
1.1739046
1.1739048
1.1739043
1.1739045
1.1739045
1.1739043
1.1739048
1.1739053
1.1739058
1.1739057
1.1739056
1.1739057
1.1739057
1.1739057
1.1739058
1.1739057
1.1739057
1.1739058
1.1739056
1.1739057
1.1739057
1.1739052
1.1739051
1.1739054
1.1739053
1.1739051
1.1739053
1.1739054
1.1739054
1.1739053
1.1739052
1.1739046
1.1739047
1.1739049
1.1739045
1.1739047
1.1739046
1.1739044
1.1739049
1.1739047
1.1739045
1.1739048
1.1739048
1.1739048
1.1739047
1.1739045
1.1739046
1.1739048
1.1739043
1.1739045
1.1739045
1.1739043
1.1739048
1.1739046
1.1739044
1.1739047
1.1739047
1.1739047
1.1739047
1.1739044
1.1739035
1.1739037
1.173904
1.1739034
1.1739036
1.1739037
1.1739034
1.173904
1.1739038
1.1739036
1.1739045
1.1739051
1.1739053
1.1739053
1.1739053
1.1739053
1.1739051
1.1739052
1.1739054
1.1739051
1.1739052
1.1739046
1.1739046
1.1739044
1.1739049
1.1739047
1.1739045
1.1739048
1.1739048
1.1739049
1.1739048
1.1739041
1.1739037
1.1739039
1.1739042
1.1739036
1.1739038
1.1739038
1.1739035
1.1739041
1.1739039
1.1739037
1.173904
1.1739041
1.173904
1.173904
1.1739036
1.1739038
1.173904
1.1739034
1.1739037
1.1739037
1.1739034
1.173904
1.1739038
1.1739035
1.1739039
1.173904
1.1739039
1.1739039
1.1739027
1.1739023
1.1739025
1.1739029
1.173902
1.1739024
1.1739024
1.1739021
1.1739029
1.1739026
1.1739023
1.1739028
1.1739039
1.1739047
1.1739048
1.1739048
1.1739047
1.1739045
1.1739047
1.1739048
1.1739044
1.1739035
1.1739038
1.1739038
1.1739035
1.1739041
1.1739039
1.1739037
1.173904
1.1739041
1.1739041
1.1739031
1.173903
1.1739025
1.1739028
1.1739031
1.1739023
1.1739026
1.1739026
1.1739023
1.1739031
1.1739027
1.1739025
1.1739029
1.173903
1.173903
1.1739029
1.1739024
1.1739027
1.173903
1.1739021
1.1739025
1.1739025
1.1739021
1.1739029
1.1739026
1.1739023
1.1739028
1.1739028
1.1739028
1.1739013
1.1739012
1.1739005
1.1739009
1.1739013
1.1739002
1.1739008
1.1739008
1.1739002
1.1739014
1.1739009
1.1739006
1.1739012
1.1739014
1.1739029
1.173904
1.173904
1.1739039
1.1739036
1.1739038
1.1739041
1.173903
1.1739022
1.1739026
1.1739026
1.1739022
1.1739031
1.1739027
1.1739025
1.1739029
1.173903
1.1739015
1.1739015
1.1739014
1.1739008
1.1739012
1.1739016
1.1739005
1.173901
1.173901
1.1739005
1.1739016
1.1739011
1.1739007
1.1739014
1.1739015
1.1739015
1.1739013
1.1739007
1.173901
1.1739015
1.1739003
1.1739008
1.1739008
1.1739003
1.1739014
1.1739009
1.1739005
1.1739012
1.1739013
1.1738993
1.1738993
1.1738991
1.1738982
1.1738987
1.1738993
1.1738979
1.1738986
1.1738986
1.1738979
1.1738994
1.1738988
1.1738983
1.1738991
1.1738993
1.1738993
1.1739014
1.1739029
1.1739028
1.1739024
1.1739027
1.173901
1.1739015
1.1739004
1.1739009
1.1739009
1.1739004
1.1739016
1.1739011
1.1739008
1.1739014
1.1738994
1.1738995
1.1738996
1.1738994
1.1738986
1.1738991
1.1738996
1.1738982
1.1738989
1.1738989
1.1738982
1.1738996
1.173899
1.1738985
1.1738993
1.1738995
1.1738994
1.1738993
1.1738984
1.1738989
1.1738995
1.173898
1.1738987
1.1738987
1.173898
1.1738994
1.1738988
1.1738983
1.1738991
1.1738965
1.1738967
1.1738967
1.1738965
1.1738955
1.1738961
1.1738968
1.1738951
1.173896
1.173896
1.1738951
1.1738969
1.1738962
1.1738955
1.1738965
1.1738968
1.1738968
1.1738966
1.1738992
1.1739013
1.1739006
1.1738984
1.1738989
1.1738995
1.1738981
1.1738988
1.1738988
1.1738982
1.1738996
1.173899
1.1738985
1.1738958
1.1738968
1.1738971
1.1738971
1.1738969
1.1738959
1.1738965
1.1738972
1.1738955
1.1738963
1.1738963
1.1738955
1.1738972
1.1738964
1.1738958
1.1738968
1.173897
1.1738969
1.1738967
1.1738957
1.1738963
1.173897
1.1738953
1.1738961
1.173896
1.1738952
1.1738969
1.1738962
1.1738955
1.1738925
1.1738936
1.1738938
1.1738938
1.1738935
1.1738924
1.1738932
1.173894
1.1738921
1.1738931
1.1738931
1.1738922
1.173894
1.1738932
1.1738925
1.1738936
1.1738939
1.1738939
1.1738937
1.1738926
1.1738956
1.1738963
1.173897
1.1738954
1.1738962
1.1738962
1.1738954
1.1738971
1.1738964
1.1738936
1.1738928
1.1738939
1.1738942
1.1738942
1.173894
1.1738929
1.1738936
1.1738944
1.1738926
1.1738935
1.1738935
1.1738925
1.1738944
1.1738936
1.1738928
1.1738939
1.1738941
1.173894
1.1738938
1.1738927
1.1738934
1.1738942
1.1738923
1.1738932
1.1738932
1.1738922
1.1738941
1.1738933
1.1738906
1.1738897
1.1738908
1.173891
1.173891
1.1738908
1.1738897
1.1738905
1.1738913
1.1738895
1.1738905
1.1738905
1.1738896
1.1738914
1.1738905
1.1738898
1.1738908
1.1738911
1.1738911
1.1738909
1.1738899
1.1738907
1.1738934
1.1738942
1.1738924
1.1738934
1.1738934
1.1738925
1.1738944
1.1738917
1.1738909
1.1738901
1.1738912
1.1738914
1.1738914
1.1738912
1.1738902
1.173891
1.1738918
1.17389
1.173891
1.173891
1.17389
1.1738917
1.1738909
1.1738901
1.1738911
1.1738913
1.1738912
1.173891
1.1738899
1.1738907
1.1738915
1.1738897
1.1738907
1.1738906
1.1738896
1.1738914
1.1738896
1.1738889
1.1738882
1.1738889
1.1738889
1.1738889
1.1738889
1.1738881
1.1738889
1.1738895
1.1738882
1.173889
1.173889
1.1738882
1.1738896
1.1738889
1.1738882
1.173889
1.173889
1.1738891
1.1738891
1.1738884
1.1738891
1.1738898
1.1738916
1.1738898
1.1738908
1.1738909
1.1738899
1.1738886
1.17389
1.1738893
1.1738886
1.1738894
1.1738894
1.1738894
1.1738894
1.1738886
1.1738894
1.1738901
1.1738887
1.1738895
1.1738895
1.1738886
1.17389
1.1738893
1.1738885
1.1738893
1.1738893
1.1738892
1.1738892
1.1738884
1.1738891
1.1738897
1.1738883
1.1738892
1.1738892
1.1738883
1.173889
1.1738898
1.1738894
1.1738888
1.1738892
1.1738891
1.1738891
1.1738892
1.1738887
1.1738893
1.1738897
1.1738889
1.1738896
1.1738896
1.173889
1.1738898
1.1738894
1.1738888
1.1738893
1.1738892
1.1738893
1.1738894
1.173889
1.1738896
1.1738901
1.1738893
1.1738885
1.1738894
1.1738894
1.17389
1.1738894
1.1738902
1.1738898
1.1738893
1.1738897
1.1738897
1.1738897
1.1738897
1.1738893
1.1738898
1.1738903
1.1738894
1.1738901
1.1738901
1.1738894
1.1738902
1.1738897
1.1738892
1.1738896
1.1738895
1.1738894
1.1738895
1.173889
1.1738895
1.1738899
1.1738891
1.1738897
1.1738897
1.1738928
1.1738924
1.1738926
1.1738925
1.1738922
1.1738923
1.1738922
1.1738922
1.1738923
1.1738922
1.1738924
1.1738925
1.1738923
1.1738926
1.1738927
1.1738923
1.1738926
1.1738925
1.1738923
1.1738924
1.1738923
1.1738924
1.1738925
1.1738925
1.1738927
1.1738929
1.1738927
1.173893
1.17389
1.1738913
1.17389
1.1738913
1.1738911
1.1738895
1.1738914
1.1738905
1.1738903
1.1738903
1.1738905
1.1738915
1.173893
1.1738927
1.1738929
1.1738931
1.1738928
1.1738931
1.1738931
1.1738928
1.173893
1.1738928
1.1738926
1.1738927
1.1738925
1.1738925
1.1738926
1.1738924
1.1738926
1.1738928
1.1738925
1.1738928
1.1738978
1.1738977
1.1738977
1.1738974
1.1738975
1.1738975
1.1738974
1.1738973
1.1738972
1.1738974
1.1738975
1.1738975
1.1738974
1.1738976
1.1738977
1.1738977
1.1738977
1.1738974
1.1738975
1.1738976
1.1738975
1.1738974
1.1738975
1.1738976
1.1738978
1.1738977
1.1738977
1.173898
1.173898
1.1738981
1.1738931
1.1738927
1.173893
1.1738929
1.1738927
1.1738928
1.1738928
1.1738928
1.1738929
1.1738979
1.173898
1.1738979
1.1738979
1.173898
1.1738981
1.1738981
1.173898
1.1738978
1.1738978
1.1738978
1.1738977
1.1738976
1.1738975
1.1738976
1.1738977
1.1738976
1.1738975
1.1738977
1.1739041
1.1739039
1.1739038
1.1739041
1.1739034
1.1739036
1.173904
1.1739035
1.1739034
1.1739034
1.1739035
1.1739039
1.1739037
1.1739034
1.1739041
1.1739039
1.1739039
1.1739041
1.1739034
1.1739037
1.173904
1.1739037
1.1739035
1.1739036
1.1739037
1.1739042
1.1739039
1.1739037
1.1739043
1.1739041
1.1739041
1.1739043
1.173898
1.1738978
1.1738979
1.1738979
1.1738979
1.1738978
1.1738978
1.1739038
1.1739039
1.1739042
1.1739039
1.1739037
1.1739042
1.1739041
1.1739041
1.1739042
1.1739037
1.1739038
1.1739041
1.1739037
1.1739036
1.1739036
1.1739037
1.173904
1.1739038
1.1739035
1.1739101
1.173911
1.1739106
1.1739106
1.173911
1.1739101
1.1739104
1.173911
1.1739103
1.1739102
1.1739102
1.1739104
1.173911
1.1739105
1.1739101
1.1739111
1.1739107
1.1739107
1.1739111
1.1739101
1.1739106
1.1739111
1.1739105
1.1739103
1.1739103
1.1739105
1.1739111
1.1739106
1.1739103
1.1739111
1.1739107
1.1739108
1.1739111
1.1739102
1.1739037
1.173904
1.1739042
1.1739039
1.1739038
1.1739103
1.1739103
1.1739105
1.173911
1.1739105
1.1739102
1.173911
1.1739106
1.1739106
1.173911
1.1739102
1.1739104
1.1739109
1.1739104
1.1739102
1.1739102
1.1739104
1.1739109
1.1739105
1.1739175
1.1739171
1.1739181
1.1739176
1.1739176
1.1739182
1.1739172
1.1739175
1.1739183
1.1739176
1.1739175
1.1739175
1.1739177
1.1739184
1.1739177
1.1739173
1.1739184
1.1739178
1.1739178
1.1739184
1.1739173
1.1739178
1.1739184
1.1739178
1.1739176
1.1739176
1.1739177
1.1739183
1.1739176
1.1739173
1.1739182
1.1739176
1.1739177
1.173918
1.1739171
1.1739175
1.1739106
1.173911
1.1739105
1.1739175
1.1739173
1.1739173
1.1739174
1.1739179
1.1739173
1.173917
1.1739178
1.1739174
1.1739174
1.1739179
1.173917
1.1739173
1.173918
1.1739174
1.1739174
1.1739173
1.1739175
1.1739181
1.1739248
1.1739242
1.1739238
1.1739248
1.1739243
1.1739243
1.1739249
1.173924
1.1739243
1.1739252
1.1739245
1.1739245
1.1739246
1.1739247
1.1739253
1.1739246
1.1739242
1.1739252
1.1739246
1.1739246
1.1739252
1.1739242
1.1739246
1.1739253
1.1739247
1.1739245
1.1739245
1.1739245
1.1739251
1.1739242
1.1739239
1.1739247
1.1739241
1.1739241
1.1739245
1.1739236
1.173924
1.1739245
1.173918
1.1739149
1.1739146
1.1739142
1.1739142
1.1739146
1.1739149
1.1739217
1.1739244
1.1739238
1.1739235
1.1739243
1.1739238
1.1739238
1.1739243
1.1739236
1.1739238
1.1739246
1.1739241
1.1739241
1.1739241
1.1739242
1.1739299
1.1739304
1.1739299
1.1739296
1.1739304
1.17393
1.17393
1.1739306
1.1739298
1.1739301
1.1739309
1.1739303
1.1739304
1.1739304
1.1739305
1.1739311
1.1739304
1.1739301
1.173931
1.1739304
1.1739304
1.173931
1.17393
1.1739304
1.173931
1.1739304
1.1739303
1.1739302
1.1739301
1.1739307
1.1739298
1.1739296
1.1739302
1.1739296
1.1739297
1.17393
1.1739292
1.1739295
1.17393
1.1739295
1.173924
1.1739239
1.1739239
1.1739239
1.1739294
1.1739298
1.1739292
1.173929
1.1739297
1.1739293
1.1739293
1.1739298
1.1739291
1.1739293
1.1739301
1.1739296
1.1739297
1.1739297
1.1739344
1.1739346
1.1739351
1.1739346
1.1739344
1.1739351
1.1739348
1.1739348
1.1739353
1.1739346
1.1739348
1.1739357
1.1739351
1.1739352
1.1739352
1.1739353
1.1739359
1.1739352
1.1739349
1.1739358
1.1739353
1.1739353
1.1739357
1.1739349
1.1739352
1.1739357
1.1739352
1.173935
1.173935
1.1739349
1.1739353
1.1739344
1.1739343
1.1739349
1.1739343
1.1739344
1.1739346
1.1739339
1.1739341
1.1739345
1.1739341
1.173934
1.1739294
1.1739294
1.173934
1.173934
1.1739344
1.1739338
1.1739337
1.1739342
1.173934
1.1739339
1.1739344
1.1739338
1.173934
1.1739347
1.1739343
1.1739344
1.1739385
1.1739385
1.1739387
1.1739391
1.1739387
1.1739385
1.1739392
1.173939
1.173939
1.1739394
1.1739388
1.173939
1.1739398
1.1739393
1.1739394
1.1739394
1.1739395
1.17394
1.1739394
1.1739392
1.1739399
1.1739395
1.1739395
1.1739399
1.1739391
1.1739393
1.1739398
1.1739393
1.1739392
1.1739391
1.173939
1.1739394
1.1739385
1.1739384
1.1739389
1.1739384
1.1739385
1.1739386
1.173938
1.1739381
1.1739385
1.1739381
1.173938
1.173938
1.173938
1.1739383
1.1739378
1.1739377
1.1739382
1.173938
1.173938
1.1739384
1.1739379
1.173938
1.1739387
1.1739383
1.1739419
1.173942
1.1739421
1.1739422
1.1739427
1.1739423
1.1739422
1.1739428
1.1739427
1.1739426
1.1739431
1.1739425
1.1739427
1.1739434
1.173943
1.173943
1.1739431
1.1739431
1.1739436
1.173943
1.1739429
1.1739435
1.1739432
1.1739432
1.1739435
1.1739428
1.173943
1.1739434
1.173943
1.1739428
1.1739427
1.1739426
1.173943
1.1739422
1.1739421
1.1739425
1.173942
1.1739421
1.1739421
1.1739416
1.1739417
1.173942
1.1739417
1.1739416
1.1739416
1.1739416
1.1739419
1.1739414
1.1739413
1.1739418
1.1739416
1.1739416
1.1739419
1.1739415
1.1739416
1.1739423
1.1739454
1.1739451
1.1739452
1.1739452
1.1739454
1.1739458
1.1739455
1.1739454
1.173946
1.1739459
1.1739459
1.1739462
1.1739458
1.1739459
1.1739465
1.1739461
1.1739462
1.1739462
1.1739463
1.1739467
1.1739462
1.1739461
1.1739467
1.1739464
1.1739464
1.1739466
1.173946
1.1739462
1.1739466
1.1739461
1.173946
1.1739459
1.1739458
1.1739461
1.1739454
1.1739453
1.1739457
1.1739452
1.1739453
1.1739453
1.1739448
1.1739449
1.1739452
1.1739449
1.1739448
1.1739448
1.1739448
1.1739451
1.1739447
1.1739446
1.173945
1.1739449
1.1739448
1.1739451
1.1739447
1.1739448
1.1739476
1.1739481
1.1739478
1.1739479
1.173948
1.1739481
1.1739485
1.1739483
1.1739482
1.1739488
1.1739487
1.1739487
1.1739491
1.1739486
1.1739487
1.1739493
1.1739489
1.1739489
1.173949
1.173949
1.1739495
1.173949
1.1739489
1.1739495
1.1739492
1.1739492
1.1739494
1.1739488
1.173949
1.1739493
1.1739489
1.1739488
1.1739487
1.1739485
1.1739489
1.1739482
1.1739481
1.1739485
1.1739481
1.1739482
1.1739482
1.1739477
1.1739478
1.173948
1.1739477
1.1739476
1.1739476
1.1739476
1.1739479
1.1739475
1.1739475
1.1739479
1.1739478
1.1739477
1.173948
1.1739476
1.1739502
1.17395
1.1739505
1.1739502
1.1739503
1.1739503
1.1739505
1.1739508
1.1739507
1.1739507
1.1739514
1.1739514
1.1739513
1.1739517
1.1739512
1.1739513
1.1739518
1.1739514
1.1739514
1.1739514
1.1739515
1.173952
1.1739516
1.1739514
1.173952
1.1739518
1.1739518
1.173952
1.1739514
1.1739515
1.1739518
1.1739514
1.1739512
1.1739511
1.173951
1.1739515
1.1739508
1.1739508
1.1739512
1.1739508
1.1739509
1.1739509
1.1739504
1.1739505
1.1739507
1.1739504
1.1739503
1.1739502
1.1739502
1.1739506
1.1739503
1.1739502
1.1739506
1.1739505
1.1739505
1.1739506
1.1739529
1.1739524
1.1739522
1.1739526
1.1739522
1.1739523
1.1739524
1.1739525
1.1739528
1.1739528
1.1739528
1.1739536
1.1739535
1.1739535
1.1739538
1.1739533
1.1739534
1.1739538
1.1739533
1.1739533
1.1739533
1.1739534
1.173954
1.1739536
1.1739535
1.1739541
1.1739539
1.1739539
1.1739541
1.1739534
1.1739536
1.1739539
1.1739533
1.1739531
1.1739531
1.173953
1.1739535
1.173953
1.1739529
1.1739534
1.173953
1.1739531
1.1739531
1.1739526
1.1739528
1.1739531
1.1739526
1.1739524
1.1739523
1.1739523
1.1739528
1.1739525
1.1739524
1.1739529
1.1739528
1.1739528
1.1739549
1.173955
1.1739546
1.1739534
1.1739538
1.1739535
1.1739537
1.1739537
1.1739538
1.173954
1.173954
1.1739549
1.1739556
1.1739553
1.1739554
1.1739557
1.1739551
1.1739554
1.1739556
1.1739551
1.173955
1.173955
1.1739552
1.1739557
1.1739555
1.1739553
1.173956
1.1739556
1.1739556
1.173956
1.1739552
1.1739555
1.1739557
1.1739551
1.1739549
1.1739548
1.1739549
1.1739554
1.1739552
1.173955
1.1739554
1.1739551
1.173955
1.1739553
1.1739547
1.1739547
1.1739548
1.1739547
1.1739545
1.1739543
1.1739545
1.173955
1.1739548
1.1739546
1.1739551
1.1739549
1.173955
1.173955
1.1739551
1.1739548
1.1739548
1.1739547
1.1739547
1.1739548
1.1739548
1.173955
1.173955
1.1739556
1.1739555
1.1739555
1.1739557
1.1739553
1.1739554
1.1739556
1.1739553
1.1739554
1.1739554
1.1739554
1.1739557
1.1739556
1.1739554
1.1739559
1.1739558
1.1739558
1.1739559
1.1739554
1.1739555
1.1739557
1.1739553
1.1739553
1.1739553
1.1739552
1.1739554
1.1739552
1.1739551
1.1739554
1.1739552
1.1739552
1.1739553
1.1739548
1.1739547
1.1739546
1.1739548
1.1739547
1.1739547
1.1739547
1.173955
1.1739548
1.1739547
1.1739551
1.1739545
1.1739544
1.1739539
1.1739526
1.1739508
1.1739491
1.1739478
1.173948
1.1739495
1.1739511
1.1739528
1.173954
1.1739547
1.1739547
1.1739541
1.1739528
1.1739507
1.173947
1.1739436
1.1739405
1.1739402
1.1739431
1.1739466
1.1739506
1.1739527
1.1739538
1.1739545
1.1739545
1.1739549
1.1739549
1.1739534
1.1739532
1.1739542
1.1739536
1.1739536
1.1739537
1.1739533
1.1739542
1.1739535
1.1739549
1.1739548
1.1739536
1.1739535
1.1739535
1.1739538
1.1739534
1.1739526
1.1739521
1.1739523
1.1739531
1.1739535
1.173954
1.1739547
1.1739546
1.1739549
1.173955
1.1739536
1.1739544
1.1739538
1.1739533
1.1739538
1.1739536
1.1739532
1.1739529
1.1739541
1.1739526
1.1739533
1.1739531
1.1739548
1.1739559
1.1739557
1.1739544
1.1739531
1.1739527
1.1739536
1.173953
1.1739526
1.1739542
1.173954
1.1739536
1.1739534
1.1739537
1.1739542
1.1739541
1.1739545
1.1739529
1.1739528
1.1739538
1.1739529
1.1739547
1.1739534
1.1739533
1.1739509
1.1739512
1.1739506
1.1739511
1.1739516
1.1739512
1.1739516
1.1739494
1.1739466
1.1739461
1.1739465
1.1739494
1.1739489
1.1739475
1.1739489
1.1739461
1.1739457
1.1739462
1.173949
1.1739486
1.1739459
1.1739457
1.1739484
1.1739505
1.1739527
1.1739511
1.1739519
1.173953
1.1739498
1.173952
1.1739497
1.1739474
1.173945
1.1739496
1.1739489
1.1739428
1.1739448
1.1739472
1.173934
1.1739429
1.1739492
1.173952
1.1739534
1.173951
1.1739496
1.1739475
1.1739506
1.173951
1.1739523
1.1739555
1.1739552
1.1739553
1.1739554
1.1739555
1.1739558
1.1739525
1.1739524
1.1739521
1.1739521
1.1739523
1.1739508
1.1739506
1.1739492
1.1739496
1.1739522
1.1739531
1.1739498
1.173944
1.1739219
1.1739163
1.1739139
1.1739141
1.1739161
1.1739219
1.1739276
1.1739331
1.1739391
1.1739394
1.1739331
1.1739277
1.1739219
1.1739163
1.1739142
1.1739144
1.1739164
1.1739219
1.1739277
1.173933
1.1739395
1.1739395
1.1739467
1.1739512
1.1739539
1.1739546
1.1739548
1.1739542
1.1739539
1.1739538
1.173954
1.1739546
1.1739544
1.1739536
1.1739511
1.1739468
1.1739395
1.1739388
1.1739335
1.1739276
1.1739219
1.1739156
1.1739136
1.1739134
1.1739154
1.1739215
1.1739272
1.1739331
1.1739386
1.1739391
1.1739331
1.1739279
1.17392
1.1738998
1.1738818
1.1738673
1.1738648
1.1738666
1.1738664
1.1738647
1.1738675
1.1738823
1.1739004
1.1739204
1.1739283
1.1739434
1.1739494
1.1739529
1.1739524
1.1739481
1.1739408
1.1739171
1.1739224
1.173913
1.1738906
1.1738673
1.1738683
1.1738687
1.1738763
1.1738826
1.173891
1.1738953
1.1738956
1.1738912
1.1738832
1.1738767
1.1738691
1.1738683
1.1738669
1.1738685
1.1738837
1.1738979
1.1739142
1.1739278
1.1739358
1.1739356
1.1739273
1.1739134
1.1738971
1.1738831
1.1738682
1.1738755
1.1738638
1.1738816
1.1739072
1.1739047
1.1739147
1.1739148
1.1739407
1.1739481
1.1739525
1.173953
1.1739495
1.1739435
1.1739221
1.1739167
1.1739071
1.1739046
1.1738787
1.173879
1.1738647
1.1738889
1.1738811
1.1739122
1.1738966
1.1739195
1.1739454
1.1739672
1.1739804
1.1739807
1.173968
1.1739465
1.1739208
1.1738977
1.1738761
1.1738638
1.1738821
1.1739138
1.1739463
1.1739833
1.1740131
1.1740315
1.1740311
1.1740121
1.1739818
1.1739446
1.1739658
1.1739254
1.1739333
1.173893
1.1738928
1.1738646
1.1738888
1.1739253
1.1739332
1.1739785
1.1739785
1.1740299
1.1740114
1.1740505
1.1740747
1.1740751
1.1740517
1.1740133
1.173968
1.1739274
1.1738902
1.173865
1.1738944
1.1739355
1.1739809
1.174032
1.1740756
1.1741027
1.1741022
1.1740742
1.1740743
1.1740301
1.1740116
1.1739658
1.1739444
1.1739118
1.1738804
1.1738631
1.1738812
1.17389
1.1739128
1.17392
1.1739277
1.173933
1.1739278
1.1739149
1.1738996
1.1738814
1.1738662
1.173867
1.1738749
1.1738959
1.1739189
1.1739449
1.1739818
1.1740123
1.1740508
1.1740751
1.1741024
1.1741029
1.1740758
1.1740322
1.173981
1.1739355
1.1738943
1.173865
1.1738901
1.1739273
1.173968
1.1740136
1.1740521
1.1740756
1.1740318
1.1740314
1.1739801
1.1739668
1.1739263
1.1739124
1.1738961
1.173882
1.1738672
1.1738677
1.1738662
1.1738632
1.1738752
1.173881
1.1738896
1.1738939
1.1739347
1.1739349
1.1739804
1.1739677
1.1740133
1.1739834
1.1739462
1.1739135
1.1738816
1.1738632
1.1738756
1.1738971
1.1739203
1.1739461
1.1739133
1.1739269
1.1738899
1.173894
1.1738648
1.1738648
1.1738785
1.1738809
1.1738899
1.1738995
1.1739198
1.1739277
1.1739355
1.173927
1.1739205
1.1738968
1.1738904
1.1738685
1.1738667
1.1738673
1.1738686
1.1738911
1.1738982
1.1739214
1.1739334
1.173928
1.1739355
1.1739281
1.1739201
1.1739125
1.1739065
1.1739038
1.1739037
1.1739062
1.173912
1.1739196
1.1739276
1.1739352
1.1739277
1.1739149
1.1738996
1.1738897
1.1738812
1.1738788
1.1738788
1.1738813
1.1738901
1.1739001
1.1739154
1.1739205
1.1739219
1.1738988
1.1738915
1.1738696
1.1738677
1.1738675
1.1738694
1.1738913
1.1738984
1.1739218
1.1739283
1.1739313
1.1739213
1.1739205
1.1739009
1.1739055
1.173898
1.1738848
1.1738874
1.1738863
1.1738713
1.173869
1.1738689
1.1738822
1.1739013
1.1738985
1.1739058
1.1738912
1.1739126
1.1738899
1.1738809
1.1739067
1.1739041
1.1738782
1.173878
1.173904
1.1739066
1.1738805
1.1738894
1.1738661
1.1738677
1.1738676
1.1738756
1.1738815
1.1738633
1.1738662
1.1738812
1.1738993
1.1739199
1.1739125
1.1738905
1.1738688
1.1738669
1.1738675
1.1738691
1.1738873
1.1738846
1.1738982
1.1738688
1.1738707
1.1738144
1.1738607
1.173843
1.1738798
1.1738865
1.1738795
1.1738422
1.1738979
1.1738876
1.1738173
1.1738785
1.1738917
1.1738428
1.1738679
1.1739249
1.1739098
1.1738908
1.1739052
1.1738906
1.1738781
1.1738685
1.173816
1.1738674
1.1738872
1.173925
1.1738415
1.1738911
1.1739094
1.1739192
1.173894
1.1738701
1.1738861
1.1738855
1.1738869
1.1738843
1.1738974
1.173905
1.1738974
1.1739005
1.1738809
1.1738674
1.1738679
1.1738701
1.1739011
1.1739014
1.1738416
1.1738296
1.1738834
1.1739265
1.1739427
1.1739285
1.1739612
1.1739492
1.1739292
1.1739249
1.1738966
1.173925
1.1739293
1.1739657
1.1739671
1.1739966
1.1739452
1.173927
1.1738319
1.1738947
1.173902
1.1738433
1.1738843
1.1739423
1.1739286
1.1739195
1.1739492
1.1739611
1.1739584
1.1740157
1.1740109
1.1739931
1.1740302
1.1739932
1.1739967
1.1739451
1.1739585
1.1740162
1.1740114
1.1740537
1.1740623
1.1740372
1.1740619
1.1740532
1.1740802
1.1740907
1.1740877
1.1740577
1.1740099
1.1739668
1.1739533
1.1739318
1.1739083
1.173882
1.1739009
1.1739481
1.1739005
1.1739314
1.1739602
1.1739907
1.1739828
1.1739254
1.1739365
1.1740031
1.1740051
1.173962
1.1738718
1.173842
1.1738464
1.1738504
1.1738741
1.1738887
1.1738736
1.1738738
1.1738763
1.1738761
1.1738876
1.1738863
1.1738849
1.1738981
1.1739059
1.1739013
1.1738822
1.1738688
1.1738689
1.1738712
1.1739018
1.1738432
1.173884
1.1738314
1.1738944
1.173919
1.1739284
1.1739421
1.1739264
1.1739241
1.1738422
1.1738911
1.1738779
1.1738167
1.1738672
1.1738867
1.1738899
1.173909
1.1739281
1.1739485
1.1739608
1.173958
1.1739445
1.1739955
1.1740153
1.1740106
1.173992
1.1739642
1.1739656
1.1739239
1.1738955
1.1739039
1.1739274
1.1739233
1.1739431
1.1739948
1.1740359
1.1740614
1.1740527
1.1740289
1.1740522
1.1740797
1.1740901
1.1740608
1.1740141
1.1740093
1.1739913
1.1739469
1.1739587
1.1739561
1.1739407
1.1739248
1.1739236
1.1738861
1.1738971
1.1738424
1.1738793
1.1738704
1.1738684
1.1738142
1.1738603
1.1738418
1.1738787
1.1738855
1.1738892
1.1738771
1.1738676
1.1738154
1.1738664
1.1738403
1.1738895
1.1739076
1.173917
1.1738923
1.1738689
1.1738284
1.1738819
1.1738401
1.1738994
1.1739259
1.1739257
1.1739587
1.1740094
1.1740523
1.1740798
1.1740804
1.1740538
1.1740115
1.1739612
1.1739283
1.1739422
1.173841
1.1738832
1.1738296
1.173894
1.173919
1.1739271
1.1739245
1.1738401
1.1738904
1.173909
1.1738898
1.1738776
1.1738148
1.1738664
1.1738871
1.1738962
1.1739247
1.1739452
1.1739584
1.1740163
1.1739969
1.1739933
1.1739491
1.1739288
1.1739656
1.1739672
1.1739247
1.1739286
1.1739044
1.1738895
1.173897
1.1738828
1.1738675
1.1738783
1.1738404
1.1738591
1.1738971
1.1738852
1.1738783
1.1738671
1.1738698
1.1738121
1.1738408
1.1738148
1.1738866
1.1738664
1.1739247
1.1739085
1.17389
1.173867
1.1738772
1.1738404
1.1738292
1.1739267
1.1739449
1.1739967
1.1740376
1.1740625
1.1740909
1.1740623
1.1740535
1.1740304
1.173993
1.174011
1.1740159
1.173958
1.1739604
1.1739485
1.1739182
1.1739273
1.1739422
1.1738829
1.1738409
1.1738689
1.1738931
1.1739003
1.1739002
1.1739271
1.1739602
1.1740107
1.1740531
1.1740618
1.1740903
1.1740609
1.1740362
1.174029
1.1739913
1.173995
1.1740141
1.1739561
1.173943
1.1739467
1.1739269
1.1739639
1.1739919
1.1739956
1.1740156
1.1739577
1.173944
1.1739477
1.1739273
1.1739235
1.1739656
1.1739229
1.173895
1.1739029
1.1738883
1.173907
1.1739167
1.1739252
1.1739403
1.1738817
1.1738395
1.1738688
1.1738991
1.1738922
1.1738282
1.1738388
1.173923
1.1738653
1.173886
1.1738139
1.173867
1.1738888
1.1738764
1.1738773
1.1738841
1.1738884
1.1739076
1.1739175
1.173926
1.1739421
1.1738826
1.1738409
1.1738689
1.1738928
1.1738288
1.17384
1.1739238
1.1738656
1.1738856
1.1738142
1.1738669
1.1738894
1.1738765
1.1738775
1.1738667
1.1738403
1.1738961
1.1738585
1.1738396
1.1738668
1.1738694
1.1738118
1.1738806
1.1738882
1.1738717
1.1738722
1.1738738
1.173874
1.1738727
1.1738729
1.173889
1.1738736
1.1738738
1.1738464
1.1738418
1.1738715
1.1738543
1.1738485
1.1738642
1.1738784
1.1739278
1.1739429
1.1739491
1.1739507
1.1739531
1.1739514
1.1739524
1.1739499
1.1739511
1.1739514
1.1739509
1.1739513
1.1739498
1.1739477
1.1739453
1.1739475
1.173945
1.1739268
1.1739266
1.1739276
1.1739344
1.1739417
1.1739474
1.1739419
1.1739431
1.1739469
1.1739512
1.1739535
1.173953
1.17395
1.1739477
1.1739453
1.1739432
1.1739456
1.1739488
1.1739417
1.1739417
1.1739488
1.173953
1.173953
1.1739518
1.1739518
1.1739492
1.1739506
1.173951
1.1739498
1.1739523
1.1739533
1.1739499
1.1739441
1.1739469
1.1739513
1.1739537
1.1739541
1.1739529
1.1739508
1.1739466
1.1739433
1.1739405
1.1739405
1.1739434
1.1739467
1.1739508
1.173953
1.1739543
1.1739551
1.173955
1.1739543
1.173953
1.1739512
1.1739494
1.1739481
1.173948
1.1739494
1.1739511
1.1739529
1.1739542
1.1739548
1.1739549
1.1739552
1.173955
1.173954
1.1739536
1.173954
1.1739545
1.1739538
1.1739521
1.1739515
1.1739508
1.1739513
1.173949
1.1739487
1.1739483
1.1739483
1.1739485
1.1739487
1.1739463
1.1739434
1.1739402
1.17394
1.17394
1.1739404
1.1739437
1.1739432
1.1739436
1.1739403
1.17394
1.1739391
1.17394
1.1739432
1.1739429
1.1739433
1.17394
1.1739398
1.1739431
1.1739428
1.1739396
1.1739391
1.1739393
1.1739398
1.1739379
1.1739407
1.1739421
1.1739449
1.1739431
1.1739456
1.1739484
1.1739474
1.1739449
1.1739445
1.1739469
1.1739411
1.1739432
1.1739411
1.1739392
1.1739375
1.1739419
1.1739423
1.1739391
1.1739368
1.1739354
1.173927
1.173932
1.1739356
1.1739384
1.173939
1.1739421
1.1739433
1.1739461
1.1739488
1.1739475
1.1739448
1.1739432
1.1739459
1.1739485
1.1739456
1.1739432
1.1739475
1.1739451
1.173946
1.1739458
1.173943
1.1739432