/*--------------------------------*- C++ -*----------------------------------*\
  =========                 |
  \\      /  F ield         | OpenFOAM: The Open Source CFD Toolbox
   \\    /   O peration     | Website:  https://openfoam.org
    \\  /    A nd           | Version:  7
     \\/     M anipulation  |
\*---------------------------------------------------------------------------*/
FoamFile
{
    version     2.0;
    format      ascii;
    class       volScalarField;
    location    "500";
    object      T;
}
// * * * * * * * * * * * * * * * * * * * * * * * * * * * * * * * * * * * * * //

dimensions      [0 0 0 1 0 0 0];

internalField   nonuniform List<scalar> 
24866
(
299.99997
299.99996
299.99996
299.99998
300
300
300
300
300
300
300
300
300
300
300
300
300
300
300
300
300
300
300
300
300
300
300
300
300
300
300
300
300
300
300
300
300
300
300
300
300
300
300
300
300
300
300
300
300
300
300
300
300
300
300
300
300
300
300
300
300
300
300
300
300
300
300
300
300
300
300
300
300
300
300
300
300
300
300
300
300
300
300
300
300
300
300
300
300
300
300
300
300
300
300
300
300
300
300
300
300
300
300
300
300
300
300
300
300
300
300
300
300
300
300
300
300
300
300
300
300
300
300
300
300
300
300
300
300
300
300
300.00001
300.00001
300.00001
300.00001
300
300
300
300
300
300
300
300
300
299.99999
299.99999
299.99999
299.99998
299.99998
299.99998
299.99998
299.99999
299.99998
299.99999
299.99999
299.99998
299.99998
299.99999
299.99998
299.99999
299.99998
299.99998
299.99998
299.99998
299.99998
299.99998
299.99998
299.99998
299.99998
299.99998
299.99998
299.99998
299.99998
299.99998
299.99998
299.99998
299.99998
299.99998
299.99999
299.99999
299.99999
299.99999
299.99999
299.99998
299.99999
299.99999
300
300
300
300
300
300
300
300
300
300
300
300.00001
300.00001
300.00001
300.00001
300.00001
300
300
300
300
300
300
299.99999
299.99999
299.99999
299.99999
299.99998
299.99999
299.99996
299.99996
299.99996
299.99996
299.99996
299.99996
299.99996
299.99996
299.99996
299.99996
299.99996
299.99997
299.99996
299.99996
299.99996
299.99996
299.99996
299.99996
299.99996
299.99996
299.99996
299.99996
299.99996
299.99996
299.99996
299.99996
299.99996
299.99996
299.99996
299.99993
299.99992
299.99992
299.99992
299.99992
299.99996
299.99998
299.99998
299.99998
299.99998
299.99998
299.99998
299.99998
299.99998
299.99998
299.99998
299.99998
299.99998
299.99998
299.99998
299.99998
299.99998
299.99998
299.99999
300
300
299.99999
299.99998
299.99999
299.99998
299.99998
299.99999
299.99999
299.99999
299.99999
299.99998
299.99999
299.99999
299.99999
299.99999
300
300
300
300
300
300
300
300
300.00001
300
300.00001
300.00001
300
300
300
300
300
300
300
300
300
300
300
300
300
300
300
300
300
300
300
300
300
300
300
300
300
300
300
300
300
300
300
300
300
300
300
300
299.99999
299.99999
299.99999
299.99999
299.99999
299.99999
299.99998
299.99997
299.99996
299.99996
299.99996
299.99996
299.99998
299.99999
299.99999
299.99999
299.99999
299.99999
299.99999
299.99998
299.99999
299.99998
299.99997
299.99997
299.99996
299.99996
299.99996
299.99996
299.99993
299.99993
299.99993
299.99993
299.99993
299.99993
299.99993
299.99993
299.99993
299.99993
299.99993
299.99993
299.99993
299.99993
299.99993
299.99993
299.99992
299.99992
299.99992
299.99992
299.99993
299.99993
299.99992
299.99993
299.99993
299.99993
299.99993
299.99992
299.99992
299.99988
299.99988
299.99988
299.99988
299.99988
299.99988
299.99988
299.99993
299.99996
299.99996
299.99996
299.99996
299.99996
299.99996
299.99996
299.99996
299.99996
299.99996
299.99996
299.99996
299.99996
299.99993
299.99993
299.99993
299.99993
299.99993
299.99993
299.99993
299.99993
299.99993
299.99993
299.99989
299.99989
299.99989
299.99988
299.99988
299.99988
299.99988
299.99989
299.99989
299.99989
299.99989
299.9999
299.9999
299.99989
299.99989
299.99989
299.99989
299.99988
299.99988
299.99988
299.99988
299.99988
299.99988
299.99988
299.99989
299.99989
299.99989
299.99988
299.99988
299.99982
299.99982
299.99982
299.99981
299.99982
299.99982
299.99981
299.99982
299.99982
299.99982
299.99988
299.99992
299.99993
299.99993
299.99993
299.99993
299.99992
299.99993
299.99993
299.99992
299.99992
299.99988
299.99988
299.99988
299.99989
299.99989
299.99989
299.9999
299.9999
299.9999
299.99989
299.99984
299.99984
299.99984
299.99984
299.99983
299.99983
299.99983
299.99983
299.99984
299.99983
299.99983
299.99984
299.99984
299.99984
299.99984
299.99983
299.99983
299.99983
299.99982
299.99982
299.99982
299.99982
299.99983
299.99982
299.99982
299.99983
299.99983
299.99983
299.99983
299.99975
299.99974
299.99974
299.99974
299.99973
299.99973
299.99973
299.99973
299.99974
299.99974
299.99974
299.99975
299.99983
299.99989
299.99989
299.99989
299.99989
299.99988
299.99988
299.99989
299.99988
299.99982
299.99982
299.99982
299.99982
299.99984
299.99983
299.99984
299.99984
299.99985
299.99985
299.99977
299.99977
299.99976
299.99976
299.99976
299.99975
299.99975
299.99975
299.99974
299.99976
299.99976
299.99976
299.99977
299.99977
299.99977
299.99977
299.99975
299.99975
299.99975
299.99974
299.99974
299.99974
299.99973
299.99975
299.99974
299.99974
299.99975
299.99976
299.99976
299.99965
299.99965
299.99963
299.99963
299.99963
299.99961
299.99962
299.99962
299.99961
299.99963
299.99963
299.99963
299.99965
299.99966
299.99976
299.99983
299.99983
299.99983
299.99983
299.99983
299.99983
299.99975
299.99974
299.99974
299.99974
299.99974
299.99976
299.99976
299.99976
299.99977
299.99977
299.99967
299.99967
299.99967
299.99965
299.99965
299.99965
299.99963
299.99964
299.99964
299.99963
299.99965
299.99965
299.99965
299.99966
299.99967
299.99967
299.99966
299.99965
299.99964
299.99965
299.99963
299.99962
299.99962
299.99962
299.99964
299.99963
299.99963
299.99965
299.99965
299.99952
299.99952
299.99951
299.99949
299.99948
299.99949
299.99947
299.99947
299.99947
299.99947
299.99949
299.99948
299.99949
299.99951
299.99952
299.99952
299.99966
299.99976
299.99976
299.99975
299.99975
299.99964
299.99964
299.99963
299.99963
299.99963
299.99963
299.99965
299.99965
299.99965
299.99967
299.99953
299.99954
299.99954
299.99953
299.99951
299.99951
299.99951
299.99949
299.99949
299.99949
299.99949
299.99951
299.99951
299.99951
299.99953
299.99954
299.99953
299.99952
299.9995
299.9995
299.9995
299.99948
299.99948
299.99948
299.99947
299.99949
299.99949
299.99949
299.99951
299.99933
299.99934
299.99934
299.99933
299.99931
299.9993
299.9993
299.99929
299.99928
299.99928
299.99929
299.99931
299.9993
299.99931
299.99933
299.99934
299.99934
299.99933
299.99951
299.99965
299.99964
299.9995
299.99949
299.9995
299.99948
299.99948
299.99948
299.99948
299.99951
299.99951
299.99951
299.99934
299.99936
299.99937
299.99937
299.99936
299.99934
299.99933
299.99933
299.99931
299.99931
299.99931
299.99931
299.99933
299.99933
299.99933
299.99935
299.99936
299.99936
299.99935
299.99933
299.99932
299.99932
299.9993
299.9993
299.9993
299.99929
299.99931
299.99931
299.99931
299.99911
299.99912
299.99913
299.99913
299.99912
299.99911
299.9991
299.9991
299.99909
299.99909
299.99909
299.99909
299.9991
299.9991
299.99911
299.99913
299.99914
299.99914
299.99913
299.99912
299.99932
299.99931
299.99932
299.9993
299.9993
299.99931
299.99931
299.99933
299.99933
299.99913
299.99914
299.99915
299.99917
299.99917
299.99916
299.99914
299.99914
299.99914
299.99912
299.99912
299.99912
299.99912
299.99913
299.99913
299.99914
299.99915
299.99916
299.99916
299.99915
299.99913
299.99912
299.99912
299.99911
299.9991
299.9991
299.9991
299.99911
299.99911
299.99892
299.99893
299.99893
299.99892
299.99892
299.99892
299.99892
299.99891
299.99891
299.99892
299.99891
299.99891
299.99892
299.99891
299.99892
299.99893
299.99893
299.99893
299.99893
299.99893
299.99894
299.99893
299.99912
299.99912
299.99911
299.99911
299.99911
299.99912
299.99913
299.99894
299.99895
299.99896
299.99896
299.99896
299.99896
299.99896
299.99896
299.99895
299.99895
299.99896
299.99895
299.99895
299.99895
299.99895
299.99895
299.99896
299.99895
299.99895
299.99895
299.99895
299.99895
299.99894
299.99893
299.99893
299.99893
299.99893
299.99893
299.99892
299.99881
299.99882
299.99882
299.99881
299.99879
299.99879
299.9988
299.99882
299.99881
299.9988
299.99883
299.99882
299.99882
299.99883
299.99881
299.99881
299.99882
299.99881
299.9988
299.9988
299.99882
299.99884
299.99883
299.99883
299.99893
299.99894
299.99894
299.99894
299.99895
299.99887
299.99884
299.99885
299.99886
299.99885
299.99884
299.99884
299.99885
299.99886
299.99886
299.99885
299.99888
299.99887
299.99887
299.99887
299.99884
299.99885
299.99886
299.99884
299.99883
299.99882
299.99883
299.99884
299.99883
299.99883
299.99885
299.99884
299.99884
299.99884
299.99892
299.99887
299.99888
299.99889
299.99886
299.99884
299.99884
299.99885
299.99888
299.99887
299.99886
299.9989
299.99889
299.99889
299.9989
299.99887
299.99888
299.99889
299.99886
299.99884
299.99885
299.99887
299.9989
299.9989
299.99889
299.99893
299.99886
299.99885
299.99886
299.99893
299.99894
299.99891
299.99892
299.99893
299.9989
299.99889
299.99889
299.9989
299.99893
299.99892
299.99891
299.99895
299.99894
299.99894
299.99895
299.99891
299.99891
299.99892
299.99889
299.99887
299.99887
299.99888
299.99891
299.9989
299.99889
299.99892
299.99891
299.99891
299.99917
299.99917
299.99913
299.99914
299.99914
299.99911
299.99909
299.99909
299.9991
299.99913
299.99913
299.99912
299.99916
299.99915
299.99915
299.99916
299.99912
299.99913
299.99914
299.99911
299.99909
299.9991
299.99912
299.99915
299.99915
299.99915
299.99919
299.99919
299.99893
299.99879
299.99865
299.9988
299.99867
299.99854
299.99875
299.99865
299.99858
299.99858
299.99865
299.99875
299.99898
299.99919
299.99918
299.99917
299.99921
299.9992
299.9992
299.9992
299.99916
299.99917
299.99917
299.99914
299.99912
299.99912
299.99913
299.99916
299.99915
299.99914
299.99918
299.99917
299.99957
299.99957
299.99957
299.99953
299.99954
299.99954
299.99951
299.99949
299.99949
299.99951
299.99953
299.99953
299.99952
299.99956
299.99956
299.99956
299.99956
299.99953
299.99954
299.99954
299.99951
299.9995
299.99951
299.99953
299.99956
299.99956
299.99956
299.99959
299.99959
299.9996
299.99919
299.9992
299.99916
299.99917
299.99918
299.99915
299.99914
299.99914
299.99916
299.99956
299.99959
299.99958
299.99957
299.99961
299.9996
299.9996
299.9996
299.99957
299.99957
299.99957
299.99954
299.99953
299.99952
299.99953
299.99956
299.99956
299.99954
299.99958
300.00008
300.00008
300.00008
300.00008
300.00005
300.00005
300.00005
300.00002
300
300
300.00001
300.00004
300.00004
300.00004
300.00007
300.00007
300.00007
300.00007
300.00004
300.00005
300.00005
300.00002
300.00001
300.00001
300.00003
300.00006
300.00007
300.00006
300.0001
300.0001
300.0001
300.0001
299.9996
299.99957
299.99958
299.99958
299.99956
299.99954
299.99955
300.00005
300.00006
300.00008
300.00009
300.00008
300.0001
300.0001
300.0001
300.0001
300.00007
300.00008
300.00007
300.00005
300.00003
300.00003
300.00004
300.00006
300.00006
300.00005
300.00063
300.00065
300.00065
300.00065
300.00065
300.00063
300.00063
300.00062
300.0006
300.00059
300.00059
300.0006
300.00062
300.00063
300.00062
300.00064
300.00065
300.00065
300.00065
300.00062
300.00063
300.00062
300.00061
300.0006
300.0006
300.00061
300.00064
300.00064
300.00064
300.00066
300.00067
300.00067
300.00066
300.00065
300.00007
300.00008
300.00008
300.00006
300.00005
300.00062
300.00062
300.00063
300.00064
300.00065
300.00065
300.00066
300.00066
300.00066
300.00066
300.00064
300.00064
300.00064
300.00062
300.00061
300.0006
300.00061
300.00063
300.00064
300.00124
300.00124
300.00125
300.00125
300.00125
300.00125
300.00124
300.00124
300.00123
300.00122
300.00122
300.00122
300.00122
300.00123
300.00124
300.00124
300.00125
300.00126
300.00126
300.00125
300.00124
300.00125
300.00124
300.00123
300.00122
300.00123
300.00123
300.00124
300.00125
300.00125
300.00125
300.00126
300.00126
300.00125
300.00125
300.00125
300.00065
300.00065
300.00063
300.00123
300.00123
300.00123
300.00123
300.00123
300.00124
300.00124
300.00125
300.00125
300.00125
300.00125
300.00124
300.00124
300.00123
300.00123
300.00122
300.00122
300.00122
300.00123
300.00181
300.00182
300.00182
300.00182
300.00183
300.00183
300.00183
300.00183
300.00183
300.00182
300.00182
300.00182
300.00182
300.00182
300.00183
300.00184
300.00184
300.00184
300.00184
300.00184
300.00184
300.00184
300.00184
300.00182
300.00182
300.00182
300.00182
300.00182
300.00182
300.00183
300.00182
300.00182
300.00183
300.00182
300.00182
300.00182
300.00182
300.0018
300.00124
300.00116
300.00111
300.00109
300.00108
300.00111
300.00116
300.00177
300.0018
300.00181
300.00181
300.00181
300.00181
300.00181
300.00181
300.00181
300.00181
300.0018
300.0018
300.00181
300.00181
300.00181
300.00232
300.00232
300.00234
300.00234
300.00234
300.00235
300.00235
300.00234
300.00235
300.00235
300.00234
300.00235
300.00235
300.00235
300.00235
300.00235
300.00236
300.00236
300.00236
300.00236
300.00236
300.00236
300.00236
300.00236
300.00234
300.00234
300.00235
300.00234
300.00234
300.00233
300.00234
300.00233
300.00233
300.00233
300.00233
300.00232
300.00232
300.00232
300.00231
300.00231
300.0018
300.0018
300.0018
300.0018
300.0023
300.0023
300.00231
300.00231
300.0023
300.00231
300.00231
300.00231
300.00232
300.00232
300.00231
300.00232
300.00232
300.00233
300.00277
300.00277
300.00277
300.00279
300.00279
300.00279
300.0028
300.0028
300.0028
300.0028
300.00281
300.0028
300.0028
300.00281
300.00281
300.00281
300.00281
300.00282
300.00282
300.00281
300.00282
300.00282
300.00281
300.00281
300.00281
300.0028
300.0028
300.0028
300.0028
300.00279
300.00278
300.00279
300.00278
300.00277
300.00277
300.00277
300.00276
300.00276
300.00276
300.00275
300.00275
300.00275
300.00231
300.00231
300.00275
300.00275
300.00274
300.00275
300.00275
300.00275
300.00275
300.00275
300.00275
300.00276
300.00276
300.00276
300.00276
300.00277
300.00317
300.00317
300.00317
300.00317
300.00318
300.00319
300.00319
300.00319
300.0032
300.0032
300.0032
300.00321
300.0032
300.00321
300.00322
300.00322
300.00321
300.00321
300.00322
300.00322
300.00322
300.00322
300.00322
300.00321
300.00321
300.00321
300.0032
300.0032
300.0032
300.0032
300.00319
300.00318
300.00318
300.00318
300.00317
300.00317
300.00316
300.00316
300.00316
300.00315
300.00315
300.00315
300.00315
300.00315
300.00314
300.00314
300.00314
300.00314
300.00314
300.00315
300.00315
300.00315
300.00315
300.00315
300.00315
300.00316
300.00351
300.00352
300.00353
300.00353
300.00353
300.00354
300.00354
300.00355
300.00355
300.00355
300.00356
300.00356
300.00356
300.00356
300.00357
300.00357
300.00358
300.00357
300.00357
300.00358
300.00358
300.00357
300.00357
300.00357
300.00357
300.00357
300.00357
300.00356
300.00356
300.00356
300.00355
300.00355
300.00354
300.00354
300.00353
300.00352
300.00352
300.00352
300.00351
300.00351
300.00351
300.0035
300.0035
300.0035
300.0035
300.0035
300.00349
300.0035
300.0035
300.0035
300.0035
300.0035
300.0035
300.0035
300.00351
300.00351
300.00382
300.00383
300.00383
300.00384
300.00384
300.00384
300.00385
300.00386
300.00386
300.00387
300.00387
300.00388
300.00388
300.00388
300.00388
300.00389
300.00389
300.00389
300.00389
300.00389
300.00389
300.00389
300.00389
300.00389
300.00389
300.00389
300.00389
300.00388
300.00388
300.00388
300.00388
300.00387
300.00386
300.00386
300.00386
300.00385
300.00385
300.00384
300.00384
300.00384
300.00383
300.00383
300.00383
300.00383
300.00383
300.00383
300.00382
300.00382
300.00382
300.00382
300.00382
300.00382
300.00382
300.00382
300.00382
300.00382
300.00411
300.00411
300.00411
300.00411
300.00412
300.00412
300.00412
300.00413
300.00414
300.00415
300.00416
300.00416
300.00417
300.00417
300.00417
300.00417
300.00417
300.00418
300.00418
300.00418
300.00418
300.00418
300.00418
300.00418
300.00418
300.00418
300.00418
300.00417
300.00417
300.00417
300.00416
300.00416
300.00416
300.00415
300.00415
300.00415
300.00414
300.00414
300.00414
300.00414
300.00413
300.00413
300.00413
300.00413
300.00413
300.00412
300.00412
300.00412
300.00412
300.00412
300.00412
300.00412
300.00412
300.00412
300.00412
300.00411
300.00437
300.00436
300.00435
300.00436
300.00436
300.00436
300.00437
300.00437
300.00438
300.0044
300.00441
300.00442
300.00442
300.00442
300.00442
300.00442
300.00442
300.00442
300.00442
300.00442
300.00442
300.00443
300.00443
300.00443
300.00443
300.00443
300.00443
300.00443
300.00442
300.00442
300.00442
300.00441
300.00441
300.00441
300.00441
300.0044
300.0044
300.0044
300.0044
300.0044
300.0044
300.0044
300.0044
300.0044
300.0044
300.00439
300.00439
300.00439
300.00438
300.00439
300.00439
300.00439
300.00439
300.00439
300.00439
300.00438
300.00463
300.00461
300.00457
300.00455
300.00456
300.00456
300.00456
300.00456
300.00457
300.00459
300.00462
300.00465
300.00465
300.00466
300.00466
300.00465
300.00466
300.00465
300.00464
300.00464
300.00464
300.00464
300.00465
300.00466
300.00465
300.00466
300.00466
300.00466
300.00466
300.00465
300.00465
300.00465
300.00464
300.00463
300.00463
300.00463
300.00464
300.00465
300.00464
300.00465
300.00465
300.00465
300.00465
300.00464
300.00464
300.00465
300.00465
300.00464
300.00462
300.00463
300.00464
300.00464
300.00464
300.00465
300.00464
300.00464
300.00479
300.00479
300.00477
300.00476
300.00471
300.00471
300.00472
300.00472
300.00472
300.00472
300.00476
300.00477
300.00479
300.00479
300.00479
300.00479
300.00479
300.0048
300.00479
300.00479
300.00479
300.00478
300.00478
300.00479
300.00479
300.00479
300.00479
300.00479
300.00479
300.00479
300.00479
300.00479
300.00478
300.00478
300.00478
300.00478
300.00478
300.00479
300.00479
300.00479
300.00479
300.0048
300.00479
300.0048
300.00479
300.0048
300.00481
300.0048
300.0048
300.00479
300.00479
300.0048
300.0048
300.00479
300.0048
300.00479
300.00494
300.00494
300.00493
300.00494
300.00496
300.00498
300.00498
300.00498
300.00497
300.00494
300.00492
300.0049
300.00491
300.00491
300.0049
300.00492
300.00491
300.00491
300.00492
300.00493
300.00493
300.00491
300.0049
300.0049
300.0049
300.00488
300.00489
300.00489
300.00488
300.0049
300.0049
300.0049
300.00491
300.00493
300.00493
300.00493
300.00492
300.00493
300.00493
300.00491
300.00492
300.00492
300.00492
300.00494
300.00497
300.00497
300.00496
300.00496
300.00497
300.00496
300.00495
300.00496
300.00495
300.00493
300.00499
300.005
300.0051
300.00532
300.00572
300.00621
300.00661
300.00656
300.00612
300.00566
300.00529
300.00508
300.00498
300.00498
300.00505
300.0053
300.00587
300.0069
300.00833
300.00954
300.00961
300.00845
300.00696
300.00588
300.0053
300.00505
300.00499
300.005
300.00489
300.00489
300.00482
300.00484
300.00478
300.00485
300.00482
300.0049
300.00485
300.00479
300.00485
300.0049
300.0049
300.00483
300.00483
300.00488
300.00507
300.00519
300.00536
300.0055
300.00545
300.0053
300.00515
300.00505
300.00498
300.00499
300.00489
300.00489
300.00483
300.00479
300.00483
300.00485
300.00485
300.00487
300.00497
300.00487
300.0048
300.00484
300.00484
300.00487
300.00491
300.0049
300.0049
300.00492
300.00489
300.00493
300.00484
300.00486
300.0049
300.00494
300.00505
300.00511
300.00513
300.00509
300.00503
300.00505
300.00493
300.00485
300.00488
300.0048
300.00487
300.00492
300.00484
300.00488
300.0047
300.00468
300.00477
300.0047
300.00467
300.00471
300.00467
300.0044
300.00412
300.00415
300.00412
300.0044
300.00444
300.00457
300.00442
300.00414
300.00419
300.00413
300.00441
300.00444
300.00416
300.00418
300.00446
300.00472
300.00491
300.0053
300.00515
300.00498
300.0055
300.00509
300.00487
300.00524
300.00582
300.00493
300.00508
300.00638
300.00662
300.00611
300.00927
300.00712
300.0057
300.00507
300.00485
300.00467
300.00486
300.00521
300.00474
300.0046
300.0048
300.00486
300.00487
300.00488
300.00488
300.00487
300.00486
300.0048
300.00482
300.00483
300.00483
300.00481
300.00464
300.00466
300.00503
300.0049
300.00507
300.00523
300.00602
300.00818
300.01288
300.01434
300.0151
300.01511
300.01437
300.01293
300.01132
300.00982
300.00855
300.00855
300.00988
300.01145
300.01311
300.01459
300.01535
300.01535
300.01458
300.0131
300.01144
300.00989
300.00857
300.00857
300.00696
300.0057
300.00516
300.00501
300.00499
300.00505
300.0051
300.00511
300.00506
300.005
300.00502
300.00517
300.00569
300.00692
300.00851
300.00852
300.00981
300.01137
300.01307
300.01462
300.01544
300.01548
300.01471
300.01319
300.01148
300.00989
300.00855
300.00853
300.0098
300.01127
300.01463
300.01958
300.02457
300.02887
300.03068
300.03075
300.03078
300.03072
300.02886
300.02448
300.01948
300.01461
300.01131
300.00837
300.00619
300.00534
300.0055
300.00661
300.00954
300.01441
300.01295
300.01725
300.02318
300.02891
300.03092
300.03155
300.0312
300.02994
300.02886
300.02797
300.02794
300.02875
300.02979
300.03104
300.03141
300.03085
300.02893
300.03148
300.03091
300.02883
300.02611
300.02348
300.02197
300.02204
300.02365
300.02635
300.02909
300.03115
300.03165
300.03144
300.03098
300.02582
300.01937
300.02052
300.01518
300.0152
300.00956
300.00662
300.0055
300.00534
300.00621
300.00842
300.01301
300.01446
300.01943
300.02055
300.02731
300.02726
300.03129
300.0295
300.03039
300.02675
300.02927
300.02533
300.02037
300.01577
300.01296
300.01288
300.01553
300.02003
300.02494
300.0289
300.03118
300.03087
300.03001
300.02625
300.02008
300.01261
300.00586
300.0018
300.00192
300.00619
300.01308
300.02062
300.01628
300.0243
300.02288
300.02878
300.02883
300.03138
300.02966
300.02447
300.02293
300.01374
300.01368
300.00242
300.00645
299.99732
299.99163
299.99148
299.99691
300.00586
300.0156
300.02365
300.02902
300.03107
300.02823
300.02215
300.01291
300.00175
299.9914
299.985
299.98516
299.99186
299.9919
300.00246
300.00659
300.01644
300.0209
300.02703
300.03065
300.0312
300.02596
300.02336
300.01735
300.01471
300.01139
300.00986
300.01232
300.01571
300.01965
300.02473
300.02921
300.03206
300.0318
300.02966
300.02576
300.02082
300.01336
300.00645
299.99744
299.99173
299.98518
299.98502
299.99143
300.00177
300.01295
300.02219
300.02828
300.03115
300.02916
300.02379
300.01572
300.00597
299.99701
299.99157
300.00205
300.00217
300.01342
300.01623
300.02426
300.02691
300.02961
300.03162
300.03204
300.03132
300.02923
300.03121
300.03176
300.03056
300.02953
300.02866
300.02266
300.02259
300.01333
300.01596
300.0061
300.01285
300.02032
300.02648
300.03023
300.03107
300.03149
300.02924
300.02531
300.02043
300.02664
300.02406
300.0294
300.02862
300.03132
300.03136
300.02742
300.02604
300.02342
300.01968
300.01477
300.01234
300.01016
300.00967
300.01201
300.0145
300.01732
300.01947
300.02064
300.0206
300.01938
300.01719
300.01436
300.01189
300.0098
300.01223
300.01009
300.01224
300.01467
300.01738
300.01955
300.02074
300.02077
300.01964
300.01751
300.0148
300.01232
300.01014
300.01227
300.01567
300.01965
300.02337
300.02591
300.02727
300.02726
300.02587
300.02327
300.01953
300.01559
300.01486
300.01187
300.01437
300.01722
300.01942
300.02065
300.02069
300.01951
300.01734
300.01449
300.01194
300.00956
300.01039
300.01188
300.0149
300.0192
300.01696
300.02281
300.0256
300.02173
300.02694
300.03157
300.03122
300.02927
300.02439
300.01912
300.01431
300.01681
300.01711
300.01728
300.02329
300.0259
300.01939
300.02055
300.02733
300.02738
300.02058
300.01945
300.02602
300.02343
300.02919
300.03122
300.03187
300.03156
300.03038
300.03114
300.02919
300.02476
300.01969
300.0147
300.01735
300.01722
300.01935
300.02051
300.02047
300.01927
300.02162
300.02557
300.02271
300.02932
300.03186
300.03237
300.03293
300.03269
300.03224
300.0315
300.03232
300.03276
300.0323
300.02994
300.03251
300.03201
300.03078
300.03121
300.03147
300.02783
300.02672
300.02936
300.02561
300.02944
300.03216
300.0314
300.03267
300.03163
300.03002
300.02798
300.03144
300.03101
300.02687
300.02415
300.03011
300.03191
300.02698
300.02704
300.02171
300.02572
300.0229
300.01701
300.01442
300.0193
300.02465
300.02963
300.03163
300.03199
300.02941
300.02936
300.02956
300.03033
300.0283
300.02496
300.02379
300.0227
300.01328
300.01608
300.0206
300.02119
300.02638
300.02113
300.02054
300.01287
300.01326
300.00601
300.01666
300.02477
300.03003
300.02982
300.02903
300.02924
300.02801
300.02359
300.02252
300.02398
300.01601
300.01325
300.01376
300.00157
300.00164
300.00589
299.99647
300.00588
300.006
300.01674
300.0138
300.0015
300.00157
299.99064
299.98997
299.99612
299.99006
299.99072
299.9839
299.98284
299.98188
299.98957
300.00172
300.0143
300.01729
300.02187
300.02707
300.02806
300.0226
300.0146
300.02268
300.02194
300.01391
300.00636
300.00672
300.0181
300.01485
300.00184
300.00217
300.01642
300.03036
300.03385
300.03282
300.03035
300.02464
300.02448
300.02959
300.03191
300.03258
300.03261
300.02168
300.02693
300.02555
300.02272
300.01687
300.0191
300.02434
300.02927
300.03127
300.0316
300.02907
300.02928
300.02811
300.03014
300.02992
300.02415
300.02259
300.02367
300.02494
300.02805
300.03137
300.03094
300.03218
300.03269
300.03168
300.03018
300.02961
300.02695
300.02089
300.01626
300.01334
300.01385
300.01692
300.00636
300.00169
300.00176
300.00623
300.01335
300.01374
300.02147
300.02674
300.02599
300.02112
300.02169
300.01738
300.00661
299.99656
299.99022
299.99088
299.9969
299.99112
299.98408
299.98303
299.99047
300.00219
300.00225
300.00648
300.01673
300.01403
300.01454
300.02447
300.02556
300.02841
300.03035
300.03251
300.03282
300.03238
300.03193
300.02935
300.03245
300.03305
300.03292
300.03249
300.03174
300.02978
300.03243
300.03154
300.03294
300.03197
300.03179
300.03136
300.02734
300.02477
300.03054
300.03213
300.03075
300.02881
300.03005
300.02986
300.02341
300.02346
300.01409
300.00229
299.99115
299.9841
299.98392
299.99066
300.0016
300.01332
300.02275
300.02383
300.0296
300.02838
300.03045
300.03024
300.02429
300.02509
300.02821
300.03167
300.03124
300.02709
300.02976
300.03247
300.03298
300.03192
300.03034
300.02672
300.02141
300.01686
300.01384
300.00153
300.00611
300.00599
300.0162
300.02082
300.01309
300.01348
300.02148
300.02091
300.02596
300.02982
300.0293
300.03134
300.03185
300.0327
300.03315
300.03335
300.03272
300.03193
300.03273
300.02966
300.03227
300.0328
300.03317
300.03304
300.03038
300.03198
300.02831
300.02722
300.03137
300.03171
300.03254
300.03178
300.03063
300.02529
300.01703
300.00621
299.9962
299.98999
299.98286
299.99013
299.99081
299.99657
300.00611
300.00186
300.00177
300.01414
300.01365
300.0164
300.02451
300.02309
300.02414
300.02859
300.02987
300.03216
300.03045
300.0297
300.02975
300.02317
300.01375
300.00199
299.99097
299.99031
299.98305
299.9905
299.99666
299.99701
300.00662
300.00674
300.00223
300.01459
300.01754
300.01689
300.02139
300.01361
300.00647
300.00659
300.00191
300.01424
300.01731
300.01668
300.0213
300.02187
300.014
300.02196
300.02713
300.02639
300.03016
300.02761
300.02494
300.02573
300.02452
300.02892
300.0301
300.03221
300.02992
300.03071
300.03091
300.03207
300.02869
300.03232
300.03073
300.03331
300.03179
300.03164
300.03279
300.03293
300.03221
300.03012
300.02749
300.02472
300.02548
300.02422
300.02871
300.02992
300.0322
300.03057
300.03076
300.03197
300.02857
300.03224
300.03068
300.03326
300.0318
300.03155
300.03275
300.03291
300.02971
300.03335
300.03299
300.03353
300.03336
300.02969
300.03239
300.03293
300.02465
300.02479
300.03003
300.03248
300.03322
300.03313
300.03221
300.02967
300.02444
300.02958
300.03194
300.03286
300.03387
300.03047
300.03398
300.03609
300.0334
300.02269
300.01063
300.00635
300.00507
300.00473
300.00491
300.00527
300.00514
300.00492
300.00471
300.00468
300.00478
300.0047
300.00487
300.00523
300.0058
300.00605
300.00657
300.01099
300.01105
300.01067
300.00878
300.00668
300.00538
300.00666
300.00705
300.00687
300.00564
300.00514
300.00493
300.00544
300.00598
300.00578
300.0063
300.00641
300.00632
300.00919
300.00921
300.00632
300.0053
300.0053
300.00517
300.00517
300.00504
300.00467
300.00465
300.00492
300.00508
300.00523
300.00603
300.00821
300.0069
300.00564
300.00513
300.00504
300.00529
300.00588
300.00698
300.00846
300.00964
300.00964
300.00846
300.00698
300.00589
300.00529
300.00503
300.00495
300.00496
300.00506
300.00529
300.00571
300.00623
300.00666
300.00666
300.00623
300.00571
300.00531
300.00508
300.00497
300.00496
300.00488
300.00488
300.00482
300.00485
300.00484
300.00478
300.00482
300.00468
300.00469
300.00476
300.00462
300.00441
300.00443
300.00445
300.00445
300.00442
300.00439
300.00412
300.00383
300.00351
300.00353
300.00351
300.0035
300.00382
300.00384
300.00382
300.0035
300.0035
300.00353
300.00351
300.00383
300.00386
300.00383
300.0035
300.00352
300.00385
300.00387
300.00354
300.00364
300.00357
300.00352
300.00365
300.00408
300.00389
300.00424
300.00449
300.00489
300.00449
300.00464
300.00431
300.00441
300.00477
300.00597
300.00544
300.00497
300.00544
300.00486
300.00403
300.00395
300.00447
300.00394
300.00428
300.00695
300.00559
300.00432
300.0037
300.00353
300.0039
300.00384
300.00414
300.00442
300.00457
300.00425
300.0045
300.00419
300.00448
300.00488
300.00543
300.00463
300.00431
300.00415
300.00418
300.00388
300.00386
300.00354
300.00355
300.00365
300.00359
300.00396
300.00387
300.00408
300.00365
300.00394
300.00448
300.00498
300.00546
300.00442
300.00477
300.00598
300.01016
300.0082
300.00617
300.00502
300.0046
300.00559
300.00618
300.00957
300.01035
300.01706
300.02273
300.03338
300.03019
300.02421
300.01702
300.00869
300.00907
300.01075
300.01055
300.02279
300.0336
300.03026
300.03041
300.02964
300.03211
300.03306
300.03398
300.03447
300.03559
300.03699
300.03125
300.02465
300.03135
300.03512
300.03851
300.03611
300.0331
300.03496
300.03424
300.03295
300.03302
300.03432
300.03078
300.03069
300.01966
300.02429
300.02955
300.03379
300.03591
300.03828
300.03483
300.03615
300.03455
300.03276
300.03554
300.02449
300.02959
300.03486
300.03326
300.03201
300.03055
300.02499
300.02421
300.01551
300.01655
300.02508
300.02037
300.00799
300.00729
300.00672
300.0182
300.01738
300.00635
300.00165
300.01436
300.01492
300.00177
300.00211
300.01652
300.01687
300.00251
299.98788
299.99575
300.00798
300.02025
300.01954
300.00729
299.99572
299.99579
299.99597
299.98947
299.98888
299.98077