/*--------------------------------*- C++ -*----------------------------------*\
  =========                 |
  \\      /  F ield         | OpenFOAM: The Open Source CFD Toolbox
   \\    /   O peration     | Website:  https://openfoam.org
    \\  /    A nd           | Version:  7
     \\/     M anipulation  |
\*---------------------------------------------------------------------------*/
FoamFile
{
    version     2.0;
    format      ascii;
    class       volScalarField;
    location    "200";
    object      k;
}
// * * * * * * * * * * * * * * * * * * * * * * * * * * * * * * * * * * * * * //

dimensions      [0 2 -2 0 0 0 0];

internalField   nonuniform List<scalar> 
24866
(
3468.0718
3534.7257
3544.0127
4134.4707
4720.5241
4709.4528
4668.8073
4720.9909
4726.3622
4663.2359
4689.3411
4689.6802
4664.0806
4726.914
4720.4741
4670.7035
4704.9731
4722.0257
4706.6942
4690.998
4624.2181
4736.6221
4869.5676
4808.5673
4680.6342
4596.4657
4694.8288
4817.7238
4804.8804
4641.1205
4711.585
4709.6309
4709.6239
4711.5908
4641.3287
4804.9689
4818.2784
4695.3621
4595.9065
4679.9611
4808.3829
4869.5517
4736.6735
4624.2301
4691.5316
4706.4068
4722.7644
4704.3668
4671.1589
4719.2837
4727.8535
4663.8191
4689.3484
4689.6093
4664.4658
4725.934
4721.4811
4667.8368
4710.6899
4719.4646
4752.6095
4724.5008
4753.0994
4755.0713
4682.0333
4715.4452
4776.2416
4764.5618
4682.5531
4685.1263
4685.3531
4682.9457
4764.7574
4776.2907
4715.6652
4681.1981
4751.0708
4750.671
4715.2508
4735.3381
4728.9791
4629.0706
4642.9318
4701.2065
4720.5181
4783.7916
4715.4508
4654.9225
4727.182
4792.218
4720.7441
4663.008
4703.5674
4707.4541
4700.5278
4683.5392
4671.6706
4691.7128
4686.4663
4696.1157
4692.3833
4695.637
4691.489
4697.8624
4702.1257
4702.1822
4700.0026
4704.9691
4698.688
4691.2084
4642.1999
4744.119
4740.8902
4714.0632
4679.3662
4693.9758
4695.7227
4698.219
4701.971
4704.2194
4703.7523
4700.451
4703.6658
4698.5236
4692.9096
4689.9202
4676.2492
4682.5733
4685.4607
4692.5694
4699.8323
4705.2313
4708.193
4706.7164
4707.282
4705.407
4701.9912
4700.0327
4695.7362
4698.7155
4679.3957
4642.2407
4744.1122
4740.8762
4537.8759
4539.065
4169.7381
4112.9494
4124.4619
4124.462
4112.9425
4052.9215
4066.3552
4590.7974
4589.6349
4084.2936
4101.8256
4012.0462
4082.5029
4063.0194
3947.5413
3918.9624
4025.9224
4095.786
4121.6583
4133.4638
4110.7664
4071.311
4118.485
4120.6355
4047.9966
4047.7703
4047.3148
4046.955
4119.8232
4118.537
4070.4436
4113.81
4179.8772
4190.8576
4548.881
4550.8814
4166.1737
4015.2355
4177.9444
4123.9046
4074.2235
4688.6135
4695.4125
4688.6251
4696.1382
4689.4323
4675.7271
4682.3905
4685.2392
4692.2843
4699.4326
4704.6923
4707.5579
4708.2216
4708.8532
4707.3088
4704.264
4702.2346
4703.6158
4705.0004
4720.7917
4691.231
4098.8536
4124.8146
4452.3975
4590.9326
4066.1362
4052.9418
3518.2733
3530.8439
3536.301
3536.298
3530.8272
3518.2338
3493.7387
3503.8447
3512.1928
3489.5319
3505.7536
3492.8273
3448.8669
3432.1634
3498.1961
3522.1212
3535.9749
3542.1281
3533.1016
3534.109
3532.6761
3535.4453
3517.4519
3513.4026
3513.3155
3516.8111
3534.5962
3532.2239
3533.4409
3078.4713
3076.3701
3077.8637
3077.7893
3076.6068
3535.0931
4114.5067
4070.2286
4119.0011
4119.5317
4048.2801
4047.6801
4047.3627
4047.6226
4120.5076
4117.6886
4071.8467
4110.4545
4133.9953
4121.611
4096.1865
4026.0487
3919.0986
4440.0551
4637.0919
4568.4658
4063.3321
4082.8209
4012.2052
4101.5899
4083.8194
4590.0404
4466.3002
4161.6191
4120.7697
3992.2157
4156.5014
4190.0297
4199.5848
4577.796
4792.4052
4727.2992
4654.8919
4663.0403
4720.4957
4707.5184
4702.2033
4703.8242
4706.7697
4703.7404
4705.2796
4704.7135
4702.0687
4697.4916
4692.2846
4692.3447
4694.5193
4697.5095
4699.4736
4699.8945
4698.6108
4695.7479
4700.5458
4697.9637
4700.6202
4701.2253
4643.0319
4683.6784
4691.617
4691.8657
4692.5064
4693.0003
4692.6379
4692.3482
4692.3211
4692.3539
4696.1417
4689.4956
4685.3326
4685.5351
4690.0025
4696.2477
4686.6464
4715.412
4671.8542
4629.246
4729.331
4735.3114
4531.8344
4176.6936
4155.7617
4525.8576
4137.9169
4159.4153
3994.0055
3453.5821
3522.4194
3498.3464
3432.2665
3449.0292
3948.0412
3957.0314
4094.1066
4122.3341
4456.5219
4438.2342
4123.1092
3973.8329
4138.045
3423.2535
3492.9243
3505.7418
3489.4933
3512.2916
3503.9262
3493.7477
3045.9135
3065.4759
3071.4358
3072.1797
3072.1776
3071.4243
3065.4535
3045.9131
3047.9517
3054.1484
3046.6605
3051.5879
3041.4059
3020.7009
3015.5111
3053.69
3066.3165
3072.5523
3076.3985
3075.7001
3079.0814
3075.2107
3076.9185
3071.7896
3070.62
3070.2667
3071.0119
3076.1881
3074.6674
2706.1146
2709.671
2707.3643
2706.8899
2706.8779
2707.532
2709.8233
3078.5794
3533.4134
3532.6265
3534.8731
3517.5499
3513.3855
3513.4414
3517.3681
3535.2277
3532.157
3534.2809
3532.9941
3542.4466
3536.0669
3072.6519
3066.521
3053.8247
3015.6121
3020.835
3041.4973
3051.6143
3046.6565
3054.1857
3047.9666
2685.1291
2685
2698.928
2702.426
2702.4765
2702.476
2702.4178
2698.9131
2684.9955
2685.1168
2689.2477
2687.2436
2688.3787
2680.8078
2669.618
2668.297
2691.3225
2699.4779
2703.1931
2705.8158
2707.1419
2710.2144
2706.6554
2707.7127
2706.6861
2706.3205
2706.0827
2706.1113
2707.0944
2406.976
2406.3936
2409.1742
2407.1481
2406.1499
2406.1633
2407.2757
2409.3309
2406.6523
2407.2769
2707.4377
3076.5277
3071.7918
3070.6267
3070.4023
3071.4307
3076.663
3074.8365
3079.0878
3075.6398
3076.5674
2705.8982
2703.2707
2699.6154
2691.4302
2668.3836
2669.7186
2680.8794
2688.4058
2687.249
2689.2731
2393.0309
2390.0879
2390.7524
2400.488
2402.6252
2402.5884
2402.5877
2402.6191
2400.4772
2390.7464
2390.0778
2393.0127
2393.2164
2392.7952
2386.9892
2380.4894
2380.853
2395.3116
2400.82
2403.3995
2405.3132
2407.1034
2409.6401
2406.8818
2407.481
2407.9223
2407.9247
2407.7484
2407.4843
2162.3358
2161.3398
2161.0346
2163.1061
2161.4124
2160.3847
2160.4058
2161.5133
2163.2501
2161.2502
2161.5922
2162.6315
2407.8829
2706.6581
2706.3438
2706.2085
2706.4229
2707.4566
2706.3556
2710.1414
2707.0877
2407.049
2405.3479
2403.4533
2400.9126
2395.3949
2380.9244
2380.566
2387.0459
2392.8209
2393.2261
2151.3232
2150.3573
2148.1984
2149.2037
2156.0798
2157.4177
2157.4216
2157.4204
2157.4127
2156.0713
2149.1974
2148.1898
2150.3436
2151.3121
2150.2705
2145.7588
2141.7869
2142.8952
2152.3914
2156.2104
2158.178
2159.6665
2161.4094
2163.4886
2161.4549
2161.7509
2162.6747
2162.8968
2162.7634
1959.8929
1959.4074
1958.3527
1958.2153
1959.7293
1958.3669
1957.4783
1957.5002
1958.4484
1959.8551
1958.3933
1958.5602
1959.6307
1960.0078
2162.9133
2407.9486
2407.8538
2407.7206
2407.2593
2406.6418
2409.5399
2163.3869
2161.3572
2159.6769
2158.2141
2156.2744
2152.4558
2142.9534
2141.8462
2145.8042
2150.294
1949.4106
1950.6266
1949.5362
1947.9571
1949.0573
1953.9945
1954.885
1954.9544
1954.9531
1954.8807
1953.9875
1949.0513
1947.9497
1949.5253
1950.6152
1949.3895
1945.8681
1943.3507
1944.7262
1951.2411
1953.9901
1955.5939
1956.811
1958.345
1960.0297
1958.5661
1958.6874
1959.6739
1959.9957
1789.8571
1789.7752
1789.3029
1788.364
1788.3143
1789.4073
1788.3517
1787.6411
1787.6611
1788.4186
1789.5146
1788.4608
1788.5335
1789.4752
1789.8667
1789.836
1959.9628
2162.8477
2162.5199
2161.5671
2161.2644
1958.4154
1959.9374
1958.2976
1956.8101
1955.6183
1954.0359
1951.2916
1944.7738
1943.3976
1945.905
1778.1735
1780.9129
1782.1144
1781.1556
1780.0218
1781.0812
1784.6814
1785.3315
1785.4574
1785.4562
1785.3279
1784.6755
1781.0757
1780.0153
1781.1465
1782.1033
1780.894
1778.143
1776.5106
1777.9041
1782.5421
1784.6096
1785.9701
1786.9963
1788.2907
1789.6334
1788.6004
1788.6368
1789.5167
1644.8951
1645.2122
1645.1467
1644.7229
1643.9487
1643.9352
1644.716
1643.921
1643.3767
1643.3942
1643.9764
1644.8067
1644.056
1644.0867
1644.8574
1645.2198
1645.1992
1644.8234
1789.4242
1959.5548
1958.5386
1788.5174
1788.4812
1789.5539
1788.2492
1786.9907
1785.9871
1784.6437
1782.5825
1777.9434
1776.5486
1634.4218
1635.4877
1637.6281
1638.7292
1637.9761
1637.1801
1638.1314
1640.7908
1641.3072
1641.4709
1641.4697
1641.304
1640.7857
1638.1264
1637.1744
1637.9683
1638.7187
1637.6113
1635.4621
1634.3905
1635.6801
1639.0797
1640.6952
1641.8708
1642.749
1643.8209
1644.8792
1644.1646
1644.1706
1519.808
1520.3827
1520.6594
1520.6067
1520.2433
1519.6276
1519.6217
1520.1748
1519.5851
1519.1794
1519.1944
1519.6315
1520.2513
1519.7217
1519.7401
1520.3495
1520.6656
1520.6518
1520.3272
1519.7325
1644.0755
1644.0701
1644.8125
1643.7853
1642.7419
1641.8831
1640.7215
1639.1126
1635.713
1512.9759
1511.8384
1512.5417
1514.2148
1515.1859
1514.6354
1514.0887
1514.9071
1516.8937
1517.3249
1517.5079
1517.5069
1517.322
1516.8892
1514.9025
1514.0836
1514.6285
1515.1763
1514.1998
1512.5199
1511.8122
1512.9482
1515.498
1516.7945
1517.8164
1518.5727
1519.4534
1520.287
1519.8034
1411.5333
1411.549
1411.999
1412.2319
1412.1891
1411.8855
1411.4023
1411.3911
1411.7806
1411.3437
1411.0471
1411.0599
1411.3827
1411.8451
1411.4741
1411.4944
1411.9702
1412.237
1412.228
1411.956
1411.4889
1411.4731
1519.7282
1520.2316
1519.4233
1518.5654
1517.8255
1516.8154
1515.5251
1407.8901
1405.9418
1404.9683
1405.4342
1406.7437
1407.5826
1407.2037
1406.8362
1407.5214
1409.0216
1409.3879
1409.5763
1409.5754
1409.3854
1409.0177
1407.5173
1406.8316
1407.1976
1407.5737
1406.7304
1405.4155
1404.946
1405.9182
1407.8675
1408.9248
1409.8138
1410.4669
1411.1895
1411.8525
1316.6135
1316.4093
1316.4391
1316.7924
1316.9848
1316.9499
1316.6996
1316.3199
1316.2992
1316.5731
1316.2457
1316.0324
1316.0434
1316.2789
1316.6277
1316.3686
1316.3957
1316.7679
1316.9891
1316.9835
1316.7591
1316.3913
1316.3609
1316.5755
1411.8066
1411.164
1410.46
1409.8207
1408.9417
1314.1588
1313.2941
1311.7797
1310.9604
1311.2705
1312.2979
1313.0142
1312.7706
1312.5291
1313.0938
1314.2397
1314.5501
1314.7341
1314.7333
1314.5478
1314.2362
1313.0901
1312.525
1312.7651
1313.006
1312.286
1311.2543
1310.9414
1311.7596
1313.2751
1314.145
1314.9177
1315.4826
1316.077
1231.8829
1232.3264
1232.2012
1232.2435
1232.5245
1232.6823
1232.6537
1232.4484
1232.1469
1232.1173
1232.3106
1232.0599
1231.9088
1231.9182
1232.0882
1232.357
1232.1756
1232.2096
1232.504
1232.6861
1232.6827
1232.4988
1232.2054
1232.162
1232.2949
1231.8644
1316.0553
1315.4762
1314.9229
1230.9061
1230.2423
1229.5281
1228.3325
1227.649
1227.8567
1228.6654
1229.2735
1229.1318
1228.9775
1229.4391
1230.3254
1230.5854
1230.7593
1230.7585
1230.5835
1230.3224
1229.436
1228.9739
1229.1271
1229.2662
1228.6549
1227.8428
1227.6328
1228.3154
1229.5121
1230.231
1230.9022
1231.3916
1156.4632
1156.8719
1157.2467
1157.1746
1157.2263
1157.4541
1157.5833
1157.5597
1157.3915
1157.1482
1157.112
1157.2497
1157.0525
1156.9472
1156.955
1157.0766
1157.2893
1157.1612
1157.2004
1157.4373
1157.5868
1157.5848
1157.4342
1157.1959
1157.1428
1157.2205
1156.8559
1156.4576
1231.3857
1232.4343
1233.4903
1231.6006
1232.0724
1233.0668
1229.5167
1230.3059
1231.3612
1231.8978
1231.4021
1230.6507
1155.9516
1154.4797
1154.8564
1155.551
1155.7659
1155.9264
1155.9256
1155.7642
1155.5486
1154.854
1154.4771
1154.5708
1154.6359
1154.1181
1153.4762
1153.3338
1153.9012
1154.86
1155.4556
1156.0384
1088.9504
1089.3196
1089.6621
1089.9857
1089.9487
1090.0063
1090.195
1090.3009
1090.2813
1090.143
1089.9428
1089.9026
1090.0026
1089.8424
1089.7703
1089.7773
1089.8635
1090.0368
1089.9447
1089.9868
1090.181
1090.304
1090.3032
1090.1795
1089.9818
1089.9225
1089.9636
1089.6483
1089.3143
1088.952
1156.0411
1155.4647
1154.8733
1153.9155
1153.3474
1153.4878
1154.1268
1154.6418
1154.5744
1087.7353
1087.681
1087.989
1088.5411
1088.716
1088.8617
1088.8614
1088.7152
1088.5401
1087.9885
1087.6806
1087.7342
1087.747
1087.3084
1086.7987
1086.7007
1087.172
1087.9505
1088.4444
1028.0812
1028.5205
1028.8418
1029.131
1029.4156
1029.4009
1029.4613
1029.6213
1029.7088
1029.6922
1029.5776
1029.4093
1029.3677
1029.4424
1029.3077
1029.2597
1029.2659
1029.3264
1029.4723
1029.4041
1029.4468
1029.6096
1029.7116
1029.7114
1029.609
1029.4411
1029.3789
1029.3964
1029.1184
1028.8361
1028.5202
1028.0849
1088.4513
1087.9608
1087.1829
1086.7107
1086.8069
1087.314
1087.7501
1027.4852
1027.5065
1027.4791
1027.7326
1028.1783
1028.3183
1028.4493
1028.4498
1028.3195
1028.1806
1027.7368
1027.4844
1027.5117
1027.489
1027.117
1026.7098
1026.6404
1027.0325
1027.6722
973.10617
973.44252
973.8234
974.10295
974.34835
974.60337
974.60197
974.66215
974.80145
974.87492
974.86061
974.76403
974.61885
974.57818
974.63655
974.51876
974.488
974.49361
974.53554
974.66318
974.61026
974.65145
974.79154
974.87732
974.87757
974.79139
974.64499
974.58273
974.58601
974.33585
974.09544
973.81929
973.4402
973.10354
1027.678
1027.0378
1026.644
1026.7112
1027.1156
972.61181
972.9257
972.97016
972.95978
973.17126
973.53735
973.64682
973.76478
973.76677
973.65284
973.54753
973.18663
972.97916
972.99101
972.94585
972.62953
972.30143
972.24888
972.57528
923.03538
923.47821
923.74831
924.0768
924.31886
924.5273
924.76119
924.76583
924.82299
924.94891
925.01251
924.99984
924.91598
924.78585
924.74839
924.79727
924.68834
924.67014
924.67533
924.70382
924.82157
924.77738
924.81496
924.94021
925.01451
925.015
924.94022
924.80777
924.74829
924.74433
924.51327
924.30712
924.06494
923.73379
923.45811
923.00516
972.56928
972.2386
972.28732
922.76248
923.02507
923.29201
923.34957
923.34799
923.52839
923.83616
923.91805
924.02577
924.03141
923.9352
923.86449
923.56974
923.40011
923.40649
923.34984
923.07987
922.81105
922.76481
877.53796
877.75724
878.12416
878.32654
878.6051
878.81149
878.98685
879.20887
879.2135
879.26476
879.38543
879.4439
879.43237
879.35559
879.23172
879.19975
879.24458
879.13495
879.126
879.13093
879.14967
879.26737
879.22665
879.25845
879.37751
879.44551
879.44616
879.37758
879.25074
879.19678
879.19117
878.96895
878.79113
878.57783
878.28726
878.06823
877.67664
877.43271
922.724
923.76719
924.22112
924.69694
924.92466
924.73157
924.31593
878.90053
877.97205
878.13155
878.39865
878.45343
878.55581
878.56909
878.49454
878.46583
878.22841
878.09451
878.10742
878.04972
877.81815
877.59046
836.08818
836.0116
836.176
836.46922
836.59123
836.81668
836.98572
837.12883
837.3508
837.34994
837.39265
837.51876
837.5781
837.5674
837.49111
837.3623
837.33783
837.38305
837.25957
837.25726
837.26204
837.27388
837.40491
837.36336
837.38747
837.51142
837.57942
837.58019
837.51158
837.37953
837.33351
837.33078
837.10359
836.94924
836.76039
836.50421
836.3437
835.99697
835.77931
835.82242
877.4688
877.68429
877.91132
877.97322
836.25367
836.2424
836.39031
836.63217
836.65666
836.76096
836.78914
836.74517
836.77599
836.59655
836.50393
836.54047
836.49359
836.29353
798.05313
797.84893
797.7226
797.81637
798.02513
798.03963
798.20029
798.32563
798.43411
798.67131
798.66022
798.69287
798.83887
798.90613
798.89569
798.81246
798.66451
798.64871
798.69767
798.54243
798.54424
798.54892
798.55646
798.7188
798.67311
798.68857
798.83189
798.90754
798.90843
798.83222
798.68072
798.644
798.64753
798.39687
798.26168
798.09352
797.86725
797.77405
797.4591
797.25892
797.32123
797.48037
836.00375
836.19619
797.642
797.68552
797.65022
797.79408
798.024
798.01058
798.12663
798.18124
798.18468
798.30613
798.19789
798.16388
798.24879
798.22761
762.91412
762.76019
762.53381
762.32415
762.31473
762.41108
762.27548
762.34842
762.4187
762.48778
762.75784
762.73388
762.75749
762.94016
763.02373
763.01378
762.9156
762.73208
762.72378
762.77798
762.57021
762.57295
762.57743
762.58374
762.79807
762.74668
762.75476
762.93402
763.02555
763.02659
762.93456
762.74706
762.71847
762.72961
762.43393
762.31316
762.16281
761.9644
761.9527
761.66133
761.4737
761.56954
761.7176
761.85111
761.87087
761.79515
761.93858
762.16605
762.10343
762.24205
762.33882
762.41677
762.67454
762.66745
762.7258
762.89175
730.289
730.3727
730.23537
729.96483
729.63624
729.47043
729.40211
729.06312
729.01456
729.01536
729.0414
729.35877
729.32549
729.34681
729.58007
729.68758
729.67875
729.5594
729.32764
729.32086
729.3774
729.10156
729.10082
729.10492
729.11395
729.39551
729.34115
729.34778
729.57584
729.68921
729.69033
729.57636
729.33962
729.31278
729.32793
728.97001
728.85749
728.72272
728.55312
728.63585
728.36938
728.19633
728.33671
728.48116
728.58844
728.5775
728.4485
728.58778
728.81361
728.69169
728.85999
729.01621
729.20484
729.65425
729.80209
730.00693
700.0659
700.48873
700.64061
700.51722
700.19306
699.72147
699.31623
698.99064
698.39639
698.18871
698.11041
698.09773
698.46071
698.43843
698.47544
698.7576
698.88854
698.88207
698.74424
698.46815
698.44805
698.49121
698.15422
698.14582
698.14923
698.16449
698.50585
698.46391
698.48389
698.7571
698.88986
698.89086
698.7569
698.47384
698.43258
698.43425
698.01808
697.90592
697.7843
697.6474
697.82237
697.60357
697.46331
697.63948
697.77253
697.8528
697.8143
697.63688
697.75603
697.96105
697.78274
697.9766
698.20239
698.53998
699.23381
699.63016
672.44109
673.25862
673.81968
674.00964
673.89629
673.54761
672.94203
672.14752
671.38098
670.4842
670.09767
669.95048
669.9119
670.28717
670.33525
670.42459
670.72232
670.8641
670.8608
670.72048
670.43694
670.37163
670.35146
670.0019
669.99256
669.99504
670.0088
670.36093
670.38092
670.44495
670.72763
670.86592
670.86608
670.72624
670.43263
670.34326
670.27919
669.84986
669.73926
669.62822
669.52038
669.75766
669.6701
669.61248
669.76161
669.8324
669.87811
669.83695
669.65386
669.71564
669.83667
669.63195
669.836
670.11901
670.62567
671.61336
646.97522
648.66148
650.12509
650.77617
650.91046
650.80379
650.52492
649.8362
648.39508
646.76374
645.46612
644.94989
644.78404
644.71227
644.99794
645.27848
645.46093
645.6917
645.89969
645.91525
645.71821
645.49698
645.35089
645.11787
644.8789
644.923
644.92379
644.88117
645.12055
645.35305
645.49582
645.70393
645.90245
645.9166
645.71592
645.48105
645.30711
645.0272
644.70663
644.64976
644.54664
644.42252
644.64126
644.94563
645.06636
645.00667
644.89018
644.93384
644.91334
644.81888
644.7447
644.59544
644.46403
644.68041
644.96749
645.59492
622.83888
624.73771
628.81321
631.59271
631.84693
631.70414
631.61473
631.62942
631.33336
628.57623
624.55234
622.72849
621.93415
621.83026
622.13525
621.63826
623.11635
623.22126
623.2277
624.17899
624.18237
623.25738
623.2821
623.22521
621.8224
622.39897
622.15415
622.15347
622.39643
621.81908
623.21881
623.26555
623.24437
624.18145
624.17964
623.2468
623.25417
623.16958
621.72141
622.22774
621.8856
621.79048
621.97429
621.68039
623.69528
623.2513
622.67916
622.49917
623.32103
622.61046
622.67136
622.6235
621.29083
621.91627
621.73329
621.94702
604.72379
604.97901
606.84902
613.64478
619.04225
617.92448
617.51655
617.42338
617.73351
618.82284
613.43772
606.70587
604.8683
604.75649
604.63212
604.73187
604.59758
605.25355
605.41906
605.46771
605.47363
605.48895
605.52079
605.50029
605.38218
604.82497
605.05015
605.1165
605.11914
605.03803
604.80607
605.36335
605.48565
605.47972
605.47664
605.48677
605.50162
605.48194
605.33276
604.70503
604.91
604.83559
604.89399
604.65828
605.15138
608.8385
608.71606
605.89536
605.08521
604.9579
605.00058
604.98936
604.80443
604.31119
604.48618
604.56016
588.84721
588.7875
589.33127
591.14635
590.53897
589.73552
589.77768
589.54006
589.71439
590.27054
591.18509
589.10475
589.01734
588.76166
589.41086
589.99542
589.31658
589.24442
590.71116
590.01558
590.03976
590.78208
589.32384
589.46513
590.28372
589.73238
589.49211
589.51908
589.68397
590.28359
589.42057
589.3045
590.711
590.01327
590.03925
590.75516
589.27348
589.46681
590.09585
589.78195
589.0598
589.73401
589.24874
590.98994
588.31652
587.81602
590.54385
590.7878
589.7381
590.40007
589.02215
588.82204
589.8857
588.93707
588.42558
588.59676
590.07115
590.44022
591.22979
592.5848
593.33553
592.95318
592.04489
591.19913
590.81403
590.3873
588.87654
588.95319
590.59575
590.73017
591.09046
592.30568
594.74471
595.91698
596.16655
595.12036
592.44992
590.99738
590.72434
590.97729
588.78267
588.6768
603.54803
603.36235
607.11676
607.65348
617.50801
608.24414
607.60514
606.00123
607.78464
616.99238
607.36843
603.07034
603.25187
607.19089
606.93593
605.08815
590.26346
590.07096
591.08893
591.25442
591.21699
590.2297
590.66193
591.17083
588.91579
589.19246
603.47946
603.2946
607.05051
617.04925
607.4108
608.00404
607.57263
605.48054
606.35187
610.6126
618.78385
610.08418
610.06683
610.60882
607.89429
603.39537
603.41546
607.72974
610.00254
609.60169
618.64361
608.12675
608.38674
604.72001
589.99077
590.83525
590.28407
590.59486
588.55583
588.0746
603.68922
607.8234
608.47847
618.31673
608.05694
603.7097
607.65161
605.89165
623.60665
624.838
624.02962
622.03905
623.34356
622.94389
623.96985
646.16905
671.67666
672.69301
671.14725
645.49841
646.65422
647.99177
645.99535
671.94048
673.12309
671.24263
645.9662
646.40947
671.85687
672.13503
646.60219
624.28662
605.62809
606.66109
605.77123
606.05355
606.60749
604.89041
623.58277
626.22333
628.09991
624.5585
625.89456
629.18022
609.02629
608.09032
610.16512
607.20097
605.76156
605.44417
606.47409
624.51171
624.34027
627.33525
627.46131
629.61394
614.46578
606.9676
604.78073
604.39925
604.25956
604.64012
606.75631
614.26049
613.9501
613.86523
613.94864
614.12732
630.31772
630.41517
629.05581
628.66048
608.07112
590.99722
592.16528
594.6097
593.40969
593.56441
593.52499
593.46448
593.46986
593.24545
593.035
590.82652
591.00196
591.10512
590.96133
593.42903
593.67324
594.05783
594.04485
594.04377
594.05899
593.71836
593.48734
591.11222
591.27725
591.28057
592.56437
591.54615
590.50376
588.53382
588.90093
590.96205
590.62199
590.63421
590.98118
588.88766
588.54536
590.47756
591.52238
592.56002
591.30375
591.24067
591.05778
593.37434
593.6083
593.96422
593.96493
594.08477
594.11361
593.84335
593.60912
591.13582
591.28158
591.19288
591.02002
593.23575
597.19196
598.10612
597.87422
596.45866
594.50968
592.70131
592.68689
594.49713
596.42324
597.86357
598.2326
597.37446
593.61609
595.2791
592.91732
591.50556
591.75852
593.8398
596.47751
594.22995
593.83904
597.65811
598.19925
596.46976
594.97443
593.53899
591.70512
589.9803
588.20096
587.32715
587.32444
588.18785
590.00878
591.70483
593.56119
594.99768
596.433
593.56515
591.61902
589.15083
586.97696
584.60592
583.50505
583.51411
584.62303
586.99046
589.16537
591.63164
593.5672
591.76837
594.60036
597.64676
597.55614
597.47983
594.21381
594.2017
596.45733
593.83006
591.75242
591.49855
592.90677
595.23291
593.77389
594.19311
597.52
597.46675
597.26669
597.28194
592.84963
588.3196
590.07415
587.07989
589.21469
586.27078
583.28659
580.52298
578.97749
578.96352
580.48989
583.25016
586.22831
589.17906
591.74343
594.50878
590.04244
587.03887
583.27527
579.30502
575.81329
573.78453
573.83974
575.88096
579.36378
583.33833
580.62329
584.75142
583.66044
587.45069
587.44105
592.83523
588.27232
584.69795
583.64681
579.04799
579.08899
573.84621
575.89609
571.71956
569.22036
569.16959
571.65202
575.81996
580.53907
584.68613
588.26084
592.7109
587.36675
583.56451
578.98585
573.74587
569.1369
566.39113
566.43037
569.23037
569.16973
573.82323
575.7971
580.51548
583.21447
586.99213
590.00904
594.54301
597.60651
598.10817
597.57767
597.26334
593.52124
591.11843
594.3744
595.46223
598.11106
597.7597
596.37517
593.47922
591.67365
589.10966
586.12076
583.13174
579.20613
575.71339
571.59124
569.09686
566.37992
566.34232
569.09128
573.7446
578.94358
583.52217
587.32541
592.65742
588.15734
584.57825
580.45463
575.74299
571.52218
569.05121
573.64601
573.65988
578.80397
580.34907
584.46239
586.83887
589.02521
591.5234
593.41785
594.85967
596.30271
594.34513
591.53339
589.81285
588.00966
587.12121
583.34325
583.33021
578.77377
580.32015
575.67164
579.1836
583.14796
586.89958
589.92234
594.38793
591.60159
589.03899
586.08846
583.11227
586.82585
584.42483
587.98968
587.1106
592.54249
592.53408
597.00779
597.39113
598.03146
598.07338
597.22285
594.37122
593.82407
601.08026
601.05046
604.92619
605.24681
605.11477
605.09046
605.10078
605.143
605.32557
605.01772
601.09809
591.15951
594.44772
593.86736
594.41089
597.26006
597.55169
597.4091
597.34087
597.40198
597.49316
597.69399
597.41102
594.42919
593.86411
594.41972
595.54153
598.25963
598.18525
597.53809
597.12361
597.08132
597.46834
598.08968
598.13455
595.5404
600.98531
601.07329
604.92516
605.22788
605.0061
604.96697
605.0145
605.07069
605.34994
605.05372
601.08228
601.11503
608.36871
601.09539
600.99002
604.55857
613.78979
604.39571
603.80705
613.44196
603.48868
599.0477
600.80823
602.66707
604.16662
604.38539
604.86712
613.56701
605.15542
597.44674
598.02805
597.3808
597.21466
597.11599
596.97701
596.93081
597.05592
597.11423
597.27468
597.8649
596.27003
594.80684
593.3821
591.5244
589.82096
594.3423
596.25942
597.67037
597.89338
596.98744
597.27268
604.98494
604.778
604.74979
604.81448
604.87177
613.2324
603.63258
604.22836
602.65672
599.17643
603.19881
607.81229
602.06253
597.72612
595.54444
597.73257
602.06865
600.50733
597.56999
599.28021
595.53773
594.07942
597.98458
603.46271
595.87832
590.82825
592.83853
589.81193
592.88108
595.58348
600.82548
599.31082
603.50352
597.59569
595.94833
598.02403
594.11469
590.90613
588.31488
592.00521
599.07317
603.31957
603.26871
613.14788
603.52931
604.05807
613.38231
604.67687
604.18777
603.95801
602.47822
600.68671
599.01377
591.18969
591.23937
594.48665
595.15196
598.94222
592.87429
592.0508
587.28321
582.5545
584.11992
586.89662
591.72669
594.61318
591.68712
586.85683
582.82368
587.46559
583.753
588.83036
592.76584
595.08331
591.92036
591.19309
594.42665
598.86537
591.92325
587.19918
588.20448
584.05325
582.52189
587.25162
581.59511
577.15507
579.24298
574.95027
579.26642
583.77215
588.89853
587.29698
581.57956
577.12146
572.36422
576.52285
579.23462
576.55995
572.37565
569.51997
573.53145
578.01002
581.22371
586.57358
592.41535
594.046
596.98545
599.7666
605.72978
602.74292
598.29515
602.79584
597.02541
592.71924
588.83153
594.19534
599.81714
598.02946
591.80746
597.17349
603.73429
610.53793
620.70593
622.34833
623.50733
624.02956
612.77821
612.08749
610.78824
609.23287
609.20925
613.38752
603.42993
603.73075
604.29401
613.65175
604.42932
604.14862
602.62533
600.79247
599.02757
591.18124
594.42201
598.86957
595.06335
591.92528
588.22962
587.21505
591.94075
592.76025
595.89445
597.97205
594.0428
595.53281
599.2659
603.46059
597.54253
592.84156
590.83791
586.88496
584.09521
582.53658
587.26045
588.85535
583.80954
581.63362
577.22955
579.31826
582.87338
587.50475
591.69224
594.62381
589.8497
586.93553
591.74531
588.92836
583.81725
579.30879
576.59728
572.44306
575.01296
572.45744
569.56461
573.58109
576.62664
581.64743
577.21023
579.30965
584.18557
582.62332
587.33639
592.07228
592.8899
595.96772
597.62185
600.50889
602.0572
597.69944
599.15635
602.66595
603.17443
607.7971
602.04906
597.72836
595.54113
592.88773
595.60531
600.86781
599.31581
603.51755
598.01214
594.14424
590.91474
588.33711
592.06133
599.13214
595.1733
598.9727
594.49358
591.30769
587.33417
587.32525
582.59045
577.19524
572.40184
569.52386
569.48365
572.32675
577.126
582.50886
587.22893
591.96586
594.4241
598.86043
595.03506
591.89781
588.18937
592.7275
595.77797
597.86643
593.9765
590.74264
592.71868
595.43047
599.13343
603.31842
597.41804
594.41292
591.55783
588.76937
587.2404
581.53702
583.65078
579.17684
584.0325
586.75037
582.67874
587.29467
591.4895
586.70673
589.66477
592.67542
589.01407
591.46791
593.40655
597.56442
601.89469
607.60934
600.33024
595.38431
597.5471
602.44235
598.98968
602.99576
601.87379
599.04595
597.36544
603.21849
595.66779
590.65598
593.86535
600.59447
595.34887
597.71989
594.81728
592.53189
588.60767
583.55725
579.1253
576.48994
573.50198
576.44347
572.26303
574.81454
579.074
577.01053
581.40356
587.02019
582.30894
583.85027
587.9935
587.01075
591.71659
598.59749
594.11654
598.81142
591.70364
590.95366
590.96767
587.02737
582.34361
577.0394
572.3215
576.48122
573.53998
576.55504
579.17831
574.91099
579.2252
583.70764
581.58974
587.30694
588.82357
584.06679
586.80194
582.71148
579.14014
583.62385
581.44171
587.04831
588.65386
583.89842
586.72082
591.51746
587.32953
591.59726
594.43687
589.68955
592.77746
590.83163
588.2913
592.8174
592.04081
598.91532
594.4764
599.11657
591.29173
592.00605
595.10919
597.92163
595.84649
603.36901
597.46347
599.17659
600.79424
594.06336
595.49965
597.64297
595.43308
592.6855
590.67713
588.04458
592.55531
591.72863
598.60813
594.141
598.80595
591.72978
594.8122
597.7448
595.69309
603.22719
597.35931
599.03767
600.59418
593.8711
595.35616
597.58179
602.48035
601.89618
600.36796
607.62812
601.95657
602.55552
599.04666
603.05498
604.03681
612.66427
611.9878
610.79309
609.30115
609.31405
610.86966
612.11206
612.76454
612.04105
610.77762
622.31684
620.69995
610.55071
615.33614
628.11883
634.16158
638.64948
633.99158
628.75164
624.54817
623.52544
605.88673
605.72306
605.81759
623.66815
624.78833
624.80502
623.22075
622.00797
623.41028
625.78409
627.48355
607.53202
608.53764
611.25183
611.47509
634.15485
632.42994
629.16646
626.48764
629.3719
607.27356
592.32542
591.49842
591.48474
608.33128
607.33641
608.48578
629.20059
630.10885
609.02502
592.43648
595.40001
595.33006
592.37078
590.82179
590.91806
608.08036
608.00868
628.9847
630.33231
630.12006
628.49149
607.91896
590.88821
592.04286
594.46412
592.1997
591.38257
591.33167
590.93186
590.69753
590.99125
592.44243
595.1586
596.37266
596.37949
595.20516
592.55983
591.20136
590.80482
590.69335
588.99998
589.13458
590.46198
590.80787
591.54898
592.89931
593.80135
593.78828
592.84004
591.40372
590.55989
590.13959
588.78343
588.68533
603.30093
603.51985
607.56419
608.20397
607.59904
617.43768
607.04715
623.9021
624.36828
627.26622
629.38282
649.5552
650.49568
650.95028
651.04089
650.71495
649.81324
673.84188
701.01733
731.01439
732.60157
731.34472
730.28763
699.72796
700.9703
699.33737
730.02288
731.54762
733.58406
730.83297
700.19587
701.38874
699.29149
729.90885
730.49013
699.9272
700.21752
730.75006
734.13141
733.42582
731.95783
735.73249
705.17159
703.00736
674.52644
676.62405
650.01666
647.19057
648.47237
674.57826
675.27603
649.0761
653.33644
652.12306
678.81307
680.17566
708.84723
703.62771
702.90093
707.4107
737.96448
739.41953
748.02319
744.90835
740.43893
736.82739
733.76867
703.29704
700.97637
673.07057
647.61144
648.64432
674.967
677.32671
674.68034
649.53489
651.04924
653.27581
651.10764
676.28645