/*--------------------------------*- C++ -*----------------------------------*\
  =========                 |
  \\      /  F ield         | OpenFOAM: The Open Source CFD Toolbox
   \\    /   O peration     | Website:  https://openfoam.org
    \\  /    A nd           | Version:  7
     \\/     M anipulation  |
\*---------------------------------------------------------------------------*/
FoamFile
{
    version     2.0;
    format      ascii;
    class       volScalarField;
    location    "200";
    object      omega;
}
// * * * * * * * * * * * * * * * * * * * * * * * * * * * * * * * * * * * * * //

dimensions      [0 0 -1 0 0 0 0];

internalField   nonuniform List<scalar> 
24866
(
434.2072
442.17438
443.51241
505.56772
565.84453
564.66482
560.06415
566.03452
566.72818
559.48512
562.59959
562.63781
559.58489
566.79205
565.96694
560.29262
564.13953
566.09635
564.31665
562.74008
555.39845
567.91585
581.73025
575.30954
561.73229
551.89268
563.17228
576.25423
575.04447
557.21447
565.05176
564.6097
564.60879
565.05189
557.23628
575.05179
576.31316
563.23002
551.8327
561.66321
575.29211
581.73149
567.92267
555.39972
562.80242
564.27881
566.18356
564.06176
560.34662
565.82941
566.89905
559.54703
562.60064
562.63097
559.62711
566.67695
566.10136
559.95554
564.81559
565.71432
569.42397
566.27559
569.48325
569.94375
561.60869
565.43059
572.32047
571.15238
561.83264
562.14221
562.16778
561.87949
571.17229
572.32299
565.45646
561.51732
569.49894
569.26298
565.25685
567.58816
567.18247
555.7115
557.48595
563.75533
565.82118
573.04391
565.90129
558.90124
567.05243
574.0208
565.85374
559.24787
564.18105
564.59329
563.87379
562.01271
560.41776
562.89272
562.02094
563.34169
563.04232
563.4554
562.95417
563.67616
564.13956
564.14619
563.89682
564.29899
563.60857
562.73161
557.07876
568.82917
568.1697
565.10465
561.2221
563.13202
563.39946
563.73323
564.15976
564.40813
564.35683
563.99566
564.35465
563.78899
563.14695
562.7453
560.97007
561.89412
562.28837
563.12588
563.93707
564.52582
564.84598
564.68593
564.74778
564.54369
564.16195
563.90009
563.40092
563.61161
561.22544
557.08312
568.82813
568.1679
550.79379
551.16058
510.68086
503.39789
504.39011
504.39032
503.39756
496.19251
499.75578
555.68978
555.36827
501.5654
502.18448
491.077
500.06222
499.26483
487.5528
483.11718
493.51225
501.39163
504.11797
505.58837
502.86302
498.15936
503.98402
504.41254
495.64832
496.10193
496.04849
495.52151
504.31899
504.00666
498.02864
503.25206
511.76482
512.62923
552.01909
552.37717
510.07649
495.50651
510.97812
504.26463
498.68556
562.24365
563.28354
562.24457
563.3411
562.69047
560.91054
561.87373
562.26374
563.09447
563.89343
564.46725
564.77702
564.8491
564.91789
564.75068
564.41295
564.15187
564.18633
564.3024
565.85872
562.73361
501.68239
504.26841
542.84348
555.70229
499.73171
496.19622
439.73718
441.98276
442.57116
442.57099
441.98111
439.73173
438.55187
439.85766
439.84048
435.85593
439.07135
438.71023
433.93817
430.9418
437.82421
440.91834
442.5852
443.42009
441.95833
441.4529
442.21842
442.70417
439.62924
439.60928
439.59514
439.54411
442.59919
442.17578
441.34442
392.59122
392.81288
393.31503
393.29375
392.85634
442.23647
503.35299
497.99558
504.0736
504.2783
495.68417
496.09225
496.05311
495.59525
504.41172
503.8781
498.22408
502.81128
505.65736
504.10322
501.44211
493.52533
483.13113
539.47566
560.30054
552.86152
499.29721
500.09292
491.09048
502.16395
501.52052
555.41512
544.09756
511.05706
506.22948
492.75985
508.86636
513.24667
512.41195
555.92958
574.04007
567.06412
558.89895
559.2514
565.8192
564.60039
564.14798
564.36459
564.69169
564.36268
564.53105
564.46954
564.18174
563.67629
563.07765
563.03358
563.33084
563.67826
563.89789
563.94379
563.79836
563.46729
564.00586
563.68707
563.88388
563.75791
557.49732
562.02773
562.96788
562.90914
563.05545
563.15667
563.13324
563.10149
563.08171
563.0347
563.34191
562.69753
562.27411
562.29627
562.75403
563.35564
562.03998
565.27429
560.43768
555.7304
567.22183
567.58238
550.16315
511.0732
509.15276
549.69523
506.84734
508.91709
493.12146
432.49852
440.95766
437.84044
430.95251
433.95699
487.60549
487.14663
503.39254
503.71941
544.01711
541.10881
504.89414
490.62348
508.61084
429.59183
438.72099
439.06898
435.84998
439.85379
439.86809
438.55198
389.88395
391.19131
392.4603
392.60327
392.60317
392.45907
391.18791
389.88444
390.39583
390.4868
388.40935
390.18176
389.83716
387.28176
385.68434
390.06303
391.84428
392.71153
393.24268
392.71946
392.6907
392.91774
393.27319
391.79747
391.91528
391.87186
391.69733
393.17832
392.85721
352.33615
352.29919
352.2842
352.50972
352.49993
352.31606
352.31377
392.59824
441.33388
442.23459
442.62572
439.64641
439.60661
439.60771
439.60992
442.68277
442.1422
441.47885
441.93088
443.46432
442.58747
392.7174
391.87253
390.07816
385.69505
387.29801
389.8476
390.18346
388.40721
390.49331
390.399
350.27903
350.00297
351.11498
351.88032
351.95203
351.95211
351.87941
351.11263
350.00278
350.27644
350.37482
349.19424
350.30431
350.02746
348.41648
347.44989
350.3587
351.53823
352.1063
352.46408
352.25666
352.38942
352.40202
352.64572
351.88413
351.9878
351.95588
351.80505
352.56207
318.97393
318.82912
318.89072
318.76298
318.86069
318.857
318.78713
318.90786
318.86818
319.01333
352.60406
393.21652
391.80334
391.91512
391.88585
391.74987
393.24282
392.85836
392.69639
392.7004
393.26792
352.47752
352.11178
351.55807
350.3713
347.45933
348.42923
350.03593
350.30627
349.1934
350.37959
317.25116
317.13601
317.0011
317.90468
318.35885
318.40983
318.40988
318.35815
317.90298
317.00058
317.13386
317.24755
316.57058
317.28683
317.03974
315.93998
315.34945
317.35394
318.16126
318.57422
318.83
318.76689
318.97063
318.89295
319.04543
318.6624
318.74484
318.71943
318.59857
290.90349
291.06903
290.98545
291.08782
290.9134
290.9453
290.94464
290.93216
291.10496
291.01858
291.10438
290.95306
318.66128
351.88527
351.98969
351.96935
351.84639
352.61236
352.35247
352.38394
352.24121
318.75372
318.83651
318.57845
318.17522
317.36411
315.35748
315.95002
317.04665
317.28882
316.57048
289.30258
289.69113
289.57293
289.53198
290.26298
290.52935
290.56974
290.56972
290.52878
290.26169
289.5313
289.57112
289.68835
289.30229
289.76653
289.53957
288.75544
288.40518
289.83576
290.40461
290.72322
290.91869
290.92909
291.15679
291.04415
291.1299
290.95559
291.02699
291.00645
267.72634
267.63669
267.6914
267.64874
267.76159
267.58089
267.5786
267.57939
267.59575
267.77757
267.67672
267.7224
267.6764
267.74451
291.02865
318.74707
318.73121
318.63131
319.01431
318.85196
318.96001
291.14449
290.91786
290.9214
290.72635
290.41464
289.84397
288.41198
288.76345
289.54526
289.76845
266.64153
266.33975
266.56056
266.45308
266.47153
267.06403
267.22369
267.25759
267.25755
267.22321
267.06301
266.4708
266.45153
266.55834
266.33923
266.63972
266.43338
265.85923
265.6623
266.71557
267.13385
267.39141
267.54983
267.59827
267.81976
267.70111
267.74323
267.67976
267.74317
247.95418
247.94005
247.8624
247.8627
247.8451
247.95269
247.78734
247.76801
247.76944
247.79932
247.96711
247.86876
247.88966
247.89477
247.95535
247.94784
267.73492
291.01632
290.92997
291.1022
291.01051
267.67355
267.80754
267.58877
267.5506
267.39379
267.14131
266.7223
265.66809
265.86573
266.43811
246.80022
246.98213
246.78756
246.9125
246.82315
246.87584
247.35683
247.45895
247.48847
247.48841
247.45854
247.35601
246.87512
246.82181
246.91068
246.7869
246.98044
246.79624
246.36871
246.26767
247.06287
247.38569
247.60115
247.73494
247.80195
248.001
247.89096
247.90698
247.89861
230.86765
230.91561
230.9037
230.83703
230.81324
230.80965
230.90492
230.76338
230.73642
230.73809
230.77321
230.91775
230.82978
230.83658
230.8637
230.91663
230.91072
230.85294
247.88101
267.65863
267.71915
247.88625
247.86831
247.98964
247.79396
247.73476
247.60303
247.39143
247.0685
246.27266
246.37408
229.57424
229.89511
230.05518
229.93102
230.00109
229.93136
230.00119
230.39208
230.46386
230.4901
230.49004
230.46351
230.39141
230.0005
229.93019
229.99957
229.9303
230.05361
229.8917
229.56972
229.52727
230.13941
230.39927
230.58351
230.69929
230.77385
230.94472
230.84945
230.85116
216.00027
216.02615
216.06707
216.05695
216.00006
215.96765
215.97112
216.05193
215.93511
215.90572
215.90741
215.94332
216.06328
215.98837
215.98787
216.02227
216.06796
216.06327
216.0138
215.98506
230.8334
230.8307
230.93448
230.76712
230.69868
230.58508
230.40385
230.14419
229.53162
214.91402
214.92161
215.16539
215.30469
215.22702
215.26562
215.21368
215.28982
215.60795
215.66341
215.68699
215.68693
215.66311
215.60739
215.28918
215.21266
215.26433
215.22628
215.30324
215.16244
214.91775
214.9102
215.38871
215.60443
215.7641
215.86571
215.94148
216.08465
216.00554
202.93909
202.93107
202.95886
202.99354
202.98488
202.93646
202.90285
202.90932
202.97611
202.88149
202.85249
202.85411
202.88842
202.98614
202.92421
202.92042
202.95515
202.99432
202.99058
202.94843
202.91801
202.92591
215.98989
216.07555
215.93578
215.86493
215.76544
215.60818
215.39283
202.40214
202.02298
202.01037
202.1971
202.31751
202.27068
202.2913
202.25408
202.33015
202.58975
202.63576
202.65712
202.65707
202.6355
202.58927
202.32956
202.25318
202.29019
202.26993
202.31616
202.19452
202.00703
202.0196
202.39856
202.5813
202.72093
202.81088
202.88429
203.00303
191.38858
191.33783
191.32931
191.35565
191.38496
191.3775
191.33628
191.30476
191.31202
191.36638
191.29036
191.26326
191.26477
191.2963
191.37528
191.32497
191.32008
191.35217
191.38565
191.38264
191.34678
191.31805
191.32662
191.38147
202.99499
202.87942
202.81004
202.72207
202.58442
191.02064
190.86431
190.5605
190.53677
190.68094
190.78465
190.75832
190.76884
190.7432
190.81578
191.02847
191.06836
191.08786
191.08781
191.06813
191.02806
190.81524
190.74242
190.76788
190.75759
190.78341
190.67867
190.53386
190.5575
190.86118
191.018
191.14095
191.22107
191.29024
180.92213
181.00387
180.9641
180.95615
180.97973
181.00447
180.99799
180.96287
180.93468
180.94165
180.98553
180.92458
180.90009
180.90148
180.92973
180.99344
180.95301
180.9481
180.97649
181.00509
181.00266
180.97215
180.94641
180.95448
180.99757
180.91845
191.28603
191.22023
191.14193
180.7872
180.67973
180.54444
180.2983
180.26895
180.38111
180.47029
180.45758
180.46267
180.44588
180.51335
180.68851
180.72395
180.74189
180.74185
180.72376
180.68817
180.51288
180.44521
180.46185
180.4569
180.46916
180.37912
180.2664
180.29563
180.5417
180.67748
180.78637
180.85808
171.5359
171.59455
171.6629
171.63202
171.62508
171.64555
171.66642
171.66077
171.63079
171.60619
171.61243
171.64772
171.59881
171.57721
171.57845
171.60331
171.65478
171.62247
171.61803
171.64257
171.66698
171.665
171.63904
171.6166
171.62369
171.6573
171.59128
171.53508
180.85726
180.91744
180.98995
180.79274
180.83987
180.94058
180.44696
180.54854
180.69145
180.75127
180.67663
180.60244
171.32575
171.17846
171.24025
171.38539
171.41729
171.43392
171.43386
171.41714
171.38514
171.23989
171.17794
171.18794
171.18563
171.18893
171.11153
171.02314
171.05469
171.25618
171.37452
171.47145
163.04738
163.10547
163.15882
163.21642
163.19262
163.18678
163.20423
163.2218
163.21681
163.19116
163.17
163.17539
163.20376
163.16443
163.14565
163.14683
163.16844
163.21014
163.18434
163.1805
163.20144
163.22229
163.22068
163.19858
163.17934
163.18534
163.21141
163.15589
163.10467
163.04791
171.47213
171.37643
171.25857
171.05702
171.02533
171.11323
171.18989
171.1862
171.18858
162.79902
162.79387
162.84999
162.97106
162.99997
163.01545
163.01546
162.99993
162.97098
162.84987
162.79365
162.79872
162.79748
162.79491
162.72833
162.65854
162.69043
162.85705
162.96073
155.31464
155.39235
155.44484
155.49315
155.5421
155.52386
155.51901
155.53374
155.54853
155.54407
155.52206
155.50396
155.50855
155.53145
155.49968
155.4836
155.48468
155.5033
155.53725
155.51663
155.51336
155.53111
155.54894
155.54763
155.52879
155.51241
155.51739
155.53753
155.49044
155.44397
155.39262
155.31577
162.96232
162.85905
162.69234
162.66027
162.7296
162.79553
162.79773
155.17203
155.1731
155.17161
155.2224
155.32415
155.35045
155.36496
155.36505
155.35065
155.32447
155.22287
155.17214
155.17363
155.1726
155.16626
155.10886
155.05334
155.08442
155.22346
148.25456
148.33478
148.40461
148.45209
148.49567
148.53771
148.52373
148.51966
148.53212
148.54459
148.54056
148.52152
148.50599
148.50996
148.52859
148.5027
148.48908
148.49009
148.50602
148.53394
148.51734
148.51449
148.52959
148.54492
148.54385
148.52771
148.51372
148.51788
148.53344
148.49302
148.45098
148.40439
148.33511
148.25487
155.22488
155.08564
155.05424
155.10926
155.16603
148.20015
148.20849
148.20976
148.21088
148.25689
148.34314
148.36707
148.38083
148.38112
148.36789
148.34449
148.25883
148.21324
148.21232
148.21114
148.20245
148.15274
148.10809
148.13765
141.76566
141.86444
141.93453
141.99719
142.04002
142.07912
142.11584
142.10499
142.10139
142.11217
142.12282
142.11912
142.10242
142.08876
142.09237
142.10778
142.08619
142.07481
142.07577
142.0893
142.1128
142.09921
142.09656
142.1097
142.12307
142.12219
142.10818
142.09595
142.09958
142.11172
142.07632
142.03835
141.99594
141.93323
141.86246
141.76226
148.13741
148.1072
148.15116
141.76883
141.81127
141.82095
141.82252
141.82525
141.86723
141.94119
141.96278
141.97611
141.97688
141.96505
141.9449
141.87255
141.8319
141.82978
141.82849
141.81838
141.77489
141.73818
135.87054
135.89515
135.97843
136.03817
136.09391
136.13216
136.16687
136.19993
136.19116
136.18766
136.19766
136.20707
136.20363
136.18853
136.17579
136.17937
136.19248
136.17344
136.16407
136.165
136.17642
136.19727
136.18581
136.18306
136.1952
136.20724
136.20653
136.19399
136.18261
136.18606
136.19578
136.16361
136.12936
136.09062
136.03359
135.97173
135.88513
135.85722
141.73332
141.83937
141.89436
141.95951
141.98337
141.95913
141.92852
136.03721
135.93883
135.97763
136.04209
136.06108
136.07454
136.07631
136.0665
136.05091
135.99027
135.95474
135.95298
135.95202
135.9411
135.90223
130.47196
130.44191
130.46211
130.53102
130.57869
130.62698
130.6603
130.69045
130.72181
130.71414
130.71034
130.72089
130.72988
130.72663
130.71226
130.69904
130.7029
130.71452
130.69584
130.68825
130.68917
130.69874
130.71916
130.70905
130.7059
130.71844
130.72997
130.72941
130.71751
130.70562
130.70927
130.71742
130.68625
130.65536
130.61983
130.56774
130.51506
130.43902
130.41173
130.43717
135.88656
135.92362
135.93392
135.93554
130.48148
130.4839
130.52049
130.57792
130.59358
130.60807
130.61181
130.60533
130.59694
130.54767
130.5183
130.51919
130.51953
130.50816
125.46803
125.43202
125.39933
125.41221
125.46593
125.49784
125.53703
125.56445
125.58949
125.62155
125.61413
125.60977
125.62279
125.6323
125.62917
125.6145
125.59894
125.60331
125.61407
125.59294
125.58686
125.58776
125.59579
125.61859
125.6092
125.60546
125.62032
125.63237
125.63195
125.61966
125.60537
125.60946
125.61673
125.58373
125.55583
125.5231
125.4754
125.43311
125.36523
125.33816
125.36214
125.39195
130.47
130.48035
125.40187
125.40161
125.40127
125.43648
125.48907
125.50011
125.51687
125.52415
125.52337
125.52665
125.49015
125.46949
125.47637
125.47965
120.79477
120.78299
120.74427
120.70371
120.70419
120.73944
120.74975
120.77663
120.79651
120.81564
120.85108
120.84338
120.83852
120.85629
120.86748
120.86449
120.84842
120.82829
120.83308
120.84334
120.81659
120.81161
120.81248
120.81936
120.84769
120.83865
120.83445
120.85387
120.86758
120.86728
120.85346
120.83454
120.83898
120.84574
120.80769
120.78228
120.75203
120.70848
120.67853
120.61718
120.59026
120.61539
120.64341
120.65249
120.64975
120.64438
120.67863
120.72799
120.73263
120.7531
120.76604
120.7748
120.79622
120.77623
120.769
120.78635
116.43128
116.44716
116.43529
116.39102
116.33717
116.31741
116.32743
116.30874
116.31857
116.32892
116.34147
116.38257
116.37491
116.37042
116.39486
116.40881
116.40602
116.38766
116.36123
116.36567
116.37517
116.34036
116.33588
116.3367
116.34295
116.37922
116.37078
116.36686
116.39264
116.40884
116.40866
116.39244
116.36704
116.37102
116.37695
116.3312
116.30755
116.27952
116.24025
116.22444
116.16938
116.14337
116.17171
116.19878
116.20667
116.20063
116.18843
116.22118
116.26771
116.26436
116.28951
116.31045
116.33389
116.38128
116.38487
116.39863
112.37233
112.42367
112.44792
112.43611
112.3851
112.31421
112.26226
112.23462
112.17963
112.16706
112.16654
112.17307
112.21984
112.21485
112.21317
112.24408
112.26073
112.25831
112.23799
112.20579
112.20785
112.2146
112.1724
112.1678
112.16852
112.17468
112.21813
112.21225
112.21064
112.2423
112.26068
112.26057
112.2422
112.21071
112.21203
112.21491
112.16177
112.1388
112.1127
112.07823
112.07627
112.03023
112.00799
112.03882
112.06381
112.06993
112.06109
112.04269
112.07172
112.11311
112.10196
112.13118
112.1615
112.2051
112.28602
112.32581
108.64497
108.74529
108.81474
108.84307
108.83121
108.77766
108.69088
108.58549
108.49491
108.39681
108.35904
108.34911
108.35149
108.39972
108.40523
108.41148
108.44431
108.46175
108.45977
108.43988
108.40696
108.40219
108.39966
108.3564
108.35253
108.35312
108.3582
108.40243
108.40557
108.41058
108.44326
108.46171
108.46153
108.44314
108.41047
108.40441
108.39741
108.34276
108.32057
108.29605
108.26584
108.27373
108.24766
108.23647
108.26146
108.27737
108.28018
108.2721
108.25333
108.27351
108.30159
108.2865
108.31751
108.35543
108.42216
108.54381
105.18633
105.40812
105.59904
105.67971
105.69869
105.68659
105.6441
105.54845
105.35353
105.14113
104.98471
104.92904
104.91706
104.91429
104.95125
104.98806
105.008
105.03215
105.05767
105.0584
105.03174
105.00686
104.99028
104.95943
104.93082
104.9355
104.93585
104.93193
104.96119
104.99254
105.00908
105.03195
105.05769
105.0596
105.03388
105.00871
104.99016
104.95417
104.91352
104.89961
104.87627
104.84351
104.85111
104.87956
104.89389
104.88791
104.8776
104.88064
104.87732
104.87056
104.8708
104.86146
104.85497
104.88798
104.92576
105.00858
101.87339
102.13075
102.69645
103.07273
103.09359
103.07143
103.06086
103.06152
103.02606
102.64697
102.08979
101.85204
101.75002
101.74773
101.80825
101.73023
101.94131
101.94687
101.94273
102.08073
102.07981
101.94289
101.94935
101.94895
101.74794
101.83963
101.79451
101.79462
101.84001
101.74882
101.94989
101.94911
101.94299
102.08063
102.08038
101.94391
101.94941
101.94688
101.7407
101.8215
101.758
101.73546
101.75535
101.6879
101.96363
101.88632
101.81247
101.79798
101.9208
101.81328
101.8253
101.83215
101.64963
101.75435
101.72046
101.74703
99.35504
99.393414
99.660478
100.62748
101.38227
101.19904
101.1364
101.12475
101.16958
101.34101
100.58293
99.625611
99.370977
99.363301
99.357844
99.392811
99.37322
99.464959
99.480307
99.487959
99.493018
99.493743
99.491491
99.485806
99.475593
99.397394
99.432471
99.429784
99.430428
99.431437
99.395983
99.474741
99.485693
99.487428
99.492893
99.494333
99.491239
99.48715
99.474216
99.387026
99.418289
99.389963
99.388991
99.349271
99.400851
99.915538
99.874689
99.484678
99.389865
99.381289
99.38163
99.378391
99.363548
99.302613
99.335922
99.335288
97.092103
97.077893
97.1565
97.425653
97.347027
97.206434
97.203804
97.167956
97.198808
97.29539
97.419822
97.114195
97.117091
97.088241
97.204517
97.282684
97.186342
97.164853
97.382668
97.2743
97.27638
97.389113
97.170284
97.200035
97.316794
97.243669
97.199126
97.203843
97.236744
97.31831
97.195025
97.169633
97.380075
97.273333
97.277269
97.387618
97.166516
97.206654
97.294599
97.259923
97.132357
97.231566
97.138687
97.390249
97.00291
96.925627
97.308419
97.350101
97.195462
97.300099
97.096119
97.077772
97.241492
97.110751
97.058376
97.099527
97.220338
97.120358
97.091628
97.167012
97.256222
97.202739
97.104866
97.093077
97.170915
97.270204
97.147634
97.14776
97.309725
97.160863
96.98682
96.936055
97.247337
97.658807
97.702204
97.301502
96.953628
96.980441
97.165093
97.34839
97.091509
97.108354
99.371077
99.320347
99.760342
99.836455
101.2593
99.950591
99.862437
99.489824
99.880467
101.18906
99.816164
99.298885
99.326798
99.799894
99.759301
99.364404
97.251323
97.158914
97.216954
97.211507
97.209911
97.119909
97.251371
97.376612
97.116973
97.186824
99.358721
99.32249
99.765365
101.19726
99.831376
99.914445
99.840463
99.41129
99.485235
100.23594
101.3888
100.10412
100.09505
100.23973
99.882392
99.237517
99.249829
99.854599
100.13358
100.08732
101.3506
99.817512
99.898382
99.438434
97.24102
97.308869
97.218076
97.291924
97.058598
96.981518
99.373215
99.87436
99.958384
101.35278
99.896632
99.37339
99.840467
99.469459
101.90278
102.11172
101.90518
101.69098
101.92926
101.79933
102.01382
105.05141
108.52975
108.59555
108.45769
104.95971
105.04936
105.07613
104.98488
108.52102
108.60483
108.43734
104.99205
105.02867
108.49504
108.52328
105.04357
101.98735
99.411164
99.395974
99.304061
99.440358
99.255137
99.180426
101.74532
101.927
102.02955
101.88521
102.03301
102.13632
99.429711
99.326519
99.348127
98.961688
99.044966
99.260936
99.554717
102.03733
101.85194
102.08899
102.38095
102.76012
100.70493
99.735281
99.388207
99.323494
99.303992
99.363594
99.693196
100.66429
100.59965
100.58235
100.59402
100.62932
102.83163
102.83481
102.48335
102.46323
99.66702
97.245773
97.151692
97.250529
97.59508
98.532875
98.666405
98.652609
98.508313
97.560775
97.361917
96.633508
96.621137
96.627597
96.637354
97.384316
97.576993
98.55014
98.687648
98.686613
98.548886
97.580072
97.386699
96.646362
96.636491
96.636539
96.953264
97.121336
97.21921
97.066604
97.127442
97.358798
97.275657
97.277633
97.362836
97.127398
97.071225
97.218435
97.120744
96.955049
96.648281
96.64379
96.655872
97.411081
97.620885
98.634789
98.786682
98.81797
98.673897
97.664374
97.453869
96.674501
96.660491
96.654808
96.66975
97.400218
98.369449
98.787135
99.814349
102.22808
105.25778
107.06673
107.04068
105.20373
102.16256
99.775829
98.77919
98.363716
97.402804
97.288168
97.180062
97.260607
97.250871
97.271396
97.683141
98.550811
97.591682
98.682729
99.413176
102.10856
104.52671
106.3546
109.16792
110.87331
112.7221
113.39514
113.40702
112.74792
110.92492
109.23348
106.43916
104.59889
102.18769
106.42143
108.5915
111.77293
113.73362
115.96071
116.77342
116.76408
115.93502
113.68582
111.70212
108.49786
106.34089
109.10482
105.06042
101.43264
100.33585
100.55414
98.682337
98.676441
97.678765
97.269682
97.249751
97.258323
97.177327
97.280466
97.575834
98.536923
100.31713
100.54745
101.85804
101.8672
106.80814
112.56808
110.76432
113.58117
111.64625
114.38614
117.01802
119.41064
120.62518
120.63266
119.43564
117.06742
114.4582
111.74909
109.19304
105.15784
110.86642
113.69909
117.04838
120.63368
123.59846
125.2071
125.20817
123.5773
120.57922
116.96432
119.31593
115.78265
116.58743
113.21574
113.21578
106.79772
112.56041
115.77898
116.59073
120.50573
120.50454
125.13293
123.52795
127.05419
129.01791
129.01888
127.07929
123.58723
119.40549
115.91329
112.68056
106.93569
113.33086
116.72138
120.59935
125.19243
129.02035
131.15794
131.15407
128.99766
128.9999
125.14016
123.53435
119.31111
116.95025
113.56549
110.7455
105.02471
101.40852
99.383319
98.662174
98.337788
97.383532
96.645882
97.100998
97.376501
98.746713
99.730523
102.04735
106.27278
109.06322
111.60499
114.34477
116.9765
120.56731
123.5663
127.06412
129.02919
131.15998
131.16561
129.02576
125.20007
120.5959
116.71321
113.32173
106.9146
112.65693
115.89127
119.39935
123.59141
127.08324
129.03066
125.1994
125.19552
120.57613
119.36629
115.84408
113.60301
111.62506
108.41927
106.27902
104.46473
102.05736
105.057
109.08812
110.78538
112.62269
113.28415
116.66454
116.66632
120.57628
119.37901
123.58444
120.61484
117.02219
113.66157
110.82884
105.10499
109.13276
111.68815
114.40495
117.0141
113.6318
115.85252
112.63176
113.28649
106.85387
106.84658
101.88513
101.4348
99.392505
98.752953
98.344208
97.102151
96.982208
98.034843
98.048145
99.649983
99.900859
101.98235
102.15008
102.15584
101.9958
99.917235
99.667018
98.072783
96.659349
97.126766
97.00088
97.125278
98.382581
98.723056
100.43468
100.67847
100.70927
100.47814
98.763243
98.425137
97.146179
97.019047
97.147278
97.437587
98.843724
99.513212
101.60335
102.06782
102.03472
101.55301
99.467548
98.7966
97.411612
98.148697
98.069517
99.68742
99.946671
102.07842
102.25279
102.28543
102.11974
99.984391
99.725819
98.092134
98.072779
98.948074
98.093686
98.174239
99.75648
100.9643
100.26485
102.52893
103.54938
102.86854
107.72866
105.97116
103.01482
100.61732
99.695611
99.666114
100.89506
99.91706
98.692791
99.434533
101.43058
100.31902
100.53896
101.87533
101.85714
100.5225
100.28891
101.39285
99.384157
102.1031
104.50722
106.33512
109.13031
110.81173
105.08054
102.08705
99.739642
98.734036
98.324778
98.652568
99.880693
101.92753
102.09557
102.11289
101.95311
103.36512
102.35259
100.18894
102.97083
105.51055
107.68353
109.33543
108.7862
107.07355
109.24168
107.05607
108.78077
109.91588
114.12086
113.07434
110.36985
111.74219
114.1886
115.41853
115.39142
114.51444
112.78613
115.32357
112.76139
110.32448
105.86388
113.03877
115.37394
114.08858
115.35739
114.14746
111.68076
114.48072
116.9483
113.81365
107.58707
102.67754
102.65956
103.34518
102.32184
100.14543
100.86029
99.629609
99.655167
100.56118
102.90656
105.82507
107.5699
114.33041
114.3402
117.37234
116.94266
119.27658
118.26823
118.79937
117.66032
121.55088
120.34767
117.92209
118.98072
116.35058
118.99974
117.94083
121.69068
123.0001
126.20902
121.50676
118.31857
117.00044
113.8874
114.42333
117.43259
119.34664
118.84627
117.71223
116.99526
120.37793
121.58464
122.72835
127.91664
126.41503
124.76108
128.37006
124.75149
126.19989
121.47594
122.69615
127.90671
126.40136
130.37709
132.07014
129.98924
132.0684
130.37271
132.58886
134.36566
136.33295
133.94314
129.59568
123.89004
122.65125
120.0595
117.29459
118.69451
121.64464
126.06139
121.62085
120.03743
124.47602
127.82545
129.53425
124.24796
125.60142
131.37794
133.12308
126.5961
122.06987
110.41769
108.58789
105.68021
103.23558
101.68065
103.93802
106.76802
108.40786
108.38218
103.51113
102.83232
102.48242
100.22322
100.92475
99.715948
100.59012
102.96009
105.92419
107.7031
114.40778
117.42057
119.33213
116.97818
113.86375
116.97408
117.70373
118.83806
118.29798
115.35839
114.15188
111.69297
110.31625
113.03312
115.38165
114.07624
112.72903
114.47287
117.89794
120.3569
121.57788
122.72202
121.48888
126.196
127.9171
126.42005
124.74525
121.64445
122.96421
118.96398
116.30406
115.2665
117.85191
118.92624
121.41895
126.16147
129.9737
132.06645
130.37505
128.34872
130.35908
132.58698
134.36714
132.06117
127.87002
126.35204
124.69884
120.27658
121.47284
122.63635
118.69421
118.16639
115.27029
114.01158
109.84467
108.71984
106.99793
105.44312
102.93323
107.62273
109.27368
108.71825
106.97968
109.15916
112.66943
110.24033
105.83207
112.96806
115.30201
114.06793
111.58501
114.37636
116.83162
113.70727
107.54731
116.85459
119.18787
117.28033
114.2308
117.54168
117.54797
121.47748
126.36163
130.36322
132.59547
132.60039
130.38555
126.4108
121.54804
117.65148
118.78899
117.36744
119.27254
116.93115
113.7937
116.92813
118.25183
115.33773
114.12803
111.64703
114.45029
112.71729
110.27926
113.01701
115.35822
114.06828
116.32884
118.97405
121.47452
122.69406
127.91282
126.21189
124.76103
120.34686
117.9048
121.68181
123.00604
118.98547
117.90738
115.28893
112.70743
111.67701
108.48938
106.3276
106.97189
108.71076
109.26725
109.84367
109.15535
106.97517
102.91986
105.42494
107.61867
108.72214
113.01584
114.05708
115.35653
115.32439
114.43088
111.63088
105.86007
110.27089
114.12477
116.94201
118.2515
121.49523
126.22466
130.01435
132.08268
134.38236
132.09975
130.39289
128.38045
124.75881
126.42289
127.94068
122.7216
121.55048
120.34038
116.90682
117.62781
118.78425
119.28497
117.36855
107.59907
113.77399
114.30408
114.30249
117.62697
121.5517
126.4217
130.3943
132.10082
134.37859
132.06571
130.00094
128.36958
124.7134
126.18226
127.87648
122.64515
121.42828
120.275
117.84845
121.64587
124.74733
126.21908
127.94227
122.72389
121.4927
120.33393
117.87694
118.96735
122.98267
118.93553
116.2985
115.24306
112.64799
114.37267
116.83391
118.17111
118.70069
119.19576
117.28911
107.54162
114.23168
113.70345
116.85925
114.07282
115.27319
115.30675
114.00851
112.96517
105.81031
111.57184
110.21534
106.92452
109.09745
112.67025
114.41074
116.90363
118.248
118.78346
119.28397
117.3699
107.59446
113.76886
116.93479
114.11424
115.31176
115.34383
114.03444
112.9955
105.84533
111.61111
110.24231
106.92896
102.90252
108.67645
109.79297
109.22878
108.67669
102.89107
105.38819
107.58779
100.56192
101.63516
103.83945
106.64106
108.25115
108.25345
106.65146
103.86879
101.6571
103.89124
106.72835
108.5486
110.39741
122.05496
117.70578
120.04971
109.98934
107.19769
102.83757
102.08143
101.84817
101.87914
99.454509
99.267996
99.347731
101.77137
102.06616
102.08813
101.78349
101.67861
101.71899
101.86816
101.9535
99.262555
99.364344
99.821528
99.860891
102.86659
102.2872
101.90301
101.8636
101.93935
98.985969
96.953952
97.15133
97.370855
99.762418
99.374661
99.41914
102.19977
102.28554
99.469356
97.171845
97.580824
97.569622
97.162113
97.197295
97.211797
99.645035
99.634472
102.47305
102.82338
102.79973
102.43546
99.640941
97.225378
97.13192
97.228204
96.935448
97.130124
97.339981
97.334038
97.157472
96.977852
96.94537
97.280024
97.683363
97.683016
97.281784
96.953497
96.99612
97.167516
97.319077
97.148203
97.185625
97.280631
97.167726
97.12157
97.177586
97.269577
97.268725
97.172553
97.106477
97.139188
97.234476
97.124542
97.071758
99.309861
99.366259
99.855858
99.944261
99.827687
101.24877
99.748153
102.00375
102.00848
102.34405
102.71573
105.47226
105.58319
105.64013
105.65234
105.6177
105.52066
108.79158
112.47005
116.50482
116.6328
116.54271
116.4441
112.33053
112.42444
112.27757
116.40838
116.53859
116.63576
116.47384
112.34927
112.43249
112.23627
116.35601
116.40858
112.29641
112.32699
116.43583
116.67987
116.63458
116.54656
116.68386
112.58781
112.52641
108.67741
108.74369
105.15022
105.07359
105.15182
108.69824
108.7467
105.18985
105.36482
105.25902
108.83889
108.94426
112.76199
112.57894
112.52911
112.66809
116.74474
116.82114
117.42742
116.91397
116.65883
116.68347
116.66037
112.56523
112.45484
108.67457
105.2056
105.16565
108.73694
108.8381
108.81602