/*--------------------------------*- C++ -*----------------------------------*\
  =========                 |
  \\      /  F ield         | OpenFOAM: The Open Source CFD Toolbox
   \\    /   O peration     | Website:  https://openfoam.org
    \\  /    A nd           | Version:  7
     \\/     M anipulation  |
\*---------------------------------------------------------------------------*/
FoamFile
{
    version     2.0;
    format      ascii;
    class       surfaceScalarField;
    location    "200";
    object      phi;
}
// * * * * * * * * * * * * * * * * * * * * * * * * * * * * * * * * * * * * * //

dimensions      [1 0 -1 0 0 0 0];

internalField   nonuniform List<scalar> 
74922
(
-0.16877256
0.3244139
-16.374185
21.541245
-2.5336255
-2.7890756
0.10482364
-16.282358
-1.2115947
17.023157
-17.60848
17.97481
-0.0031955851
-18.152339
0.22770234
0.29987743
-0.00033934318
0.6209974
0.02448228
-0.42242625
0.687324
-0.63340292
16.347288
-1.9076699
-2.0910663
29.52351
-0.32732432
-0.83789578
21.547784
1.7766052
-0.62125571
17.641135
-0.49265213
-2.145763
24.773668
-0.083306984
-1.6720353
27.796745
0.35615086
-1.6743636
27.854909
-1.8441975
-2.1531775
24.915636
0.33653741
-0.61021083
17.773255
1.832579
-0.82975402
21.696375
-0.46548325
-2.0874398
29.812545
-0.74562557
-0.65227544
16.493785
0.46973699
-0.48618654
18.423093
0.40253079
-0.51026749
18.294469
0.26306701
-0.77013569
16.693027
-6.5418546
-0.69844236
29.908817
-7.2598309
1.6403145
27.550741
3.6773665
-0.13930612
28.553358
7.1014508
1.5483957
19.843183
4.5902464
-1.9581603
25.435057
-2.657019
-3.9658298
26.015741
-3.397861
-1.3277013
22.480048
0.85305211
1.3414625
17.491316
7.6449925
2.1683126
24.759675
-0.74004838
-0.22297093
28.386813
0.042649717
-0.6846711
16.418079
0.0004263891
-0.62353011
17.93274
-0.042350329
-0.62372456
17.932767
0.73957512
-0.68542589
16.41873
-7.6301749
-0.22541188
28.378537
-0.85282774
2.1626704
24.751937
3.4072707
17.464301
1.3369643
2.660244
22.440442
-1.3322286
-4.6054664
26.056369
-3.9594176
-7.096939
25.49648
-1.9439247
-3.6748369
19.859622
1.566727
7.2700096
28.578694
-0.11172491
6.5569292
27.57649
1.6594455
-0.27134494
29.926404
-0.68727252
-0.3762953
16.706309
-0.76450592
-0.49377138
18.293064
-0.50802515
0.78759917
18.424691
-0.48366804
0.41953658
16.462506
-0.65221287
-1.7985646
29.796483
-2.0810418
-0.41583815
21.628454
-0.83394619
1.7883525
17.687697
-0.60186156
-0.50470458
24.847624
-2.1444675
-0.094063946
27.820199
-1.6635809
0.35359223
27.84654
-1.670923
-1.8040685
24.901073
-2.1662987
0.2581454
17.679907
-0.61638327
1.9774607
21.62923
-0.80907552
-0.73626772
29.616213
-2.0748946
-0.55143526
16.380729
-0.62593348
-0.42365216
18.147778
-0.39764726
0.8085106
7.535151
0.39971298
31.278179
-0.18857546
-0.16751375
0.8337793
7.5330405
1.4033174
5.8001521
-3.8802891
-1.1922267
33.055027
-0.51145861
-3.4946344
1.5315296
35.999281
1.3807349
7.975043
2.5994668
5.9190479
-0.18843759
-1.6743517
25.935603
-0.051173601
-3.156251
29.025602
0.10603492
-3.1558965
29.068396
-2.6458365
-1.6888864
26.042013
-1.3989564
5.9495562
0.52602509
8.0250046
3.9654289
-3.5101791
1.5484992
36.144368
-1.2444877
-1.2742197
33.17905
-0.8032477
5.8262758
-0.37211007
7.5759595
0.6613875
-0.737916
-0.38745112
30.997852
0.68928943
7.4409103
0.80099734
5.7528384
-5.9262121
-1.0619788
31.555836
-7.1496891
-3.5012348
38.343484
-1.3464541
-5.1813121
40.891586
1.3771266
4.4510265
-6.0319371
44.686466
7.0937797
8.462886
4.915123
8.9891791
-3.4711884
-0.56724467
25.330545
-4.6543932
8.2507112
0.55359745
7.8796755
2.8205905
-4.9124524
3.2237664
42.346287
-5.7928166
47.731847
0.020373164
-6.9506884
1.3099592
42.820172
2.0452978
-7.0335103
42.418707
3.9927471
-6.4069043
40.546003
3.9006163
-5.1107345
38.07062
-3.5995034
38.400777
3.6416373
-3.8635734
-4.2658134
38.1189
-2.670124
38.874546
-4.8272114
-1.9686445
37.598018
-5.0852197
-3.0635537
39.68825
5.0980629
-4.2077999
-3.8840101
41.553136
-3.8276597
40.037831
-2.3001534
-5.955312
41.794266
-0.28920486
-6.381413
43.065027
1.70363
-6.3664231
43.264045
6.2878348
3.3790374
-5.937711
42.280603
2.8771402
41.254431
3.3714146
3.6985564
-5.0756689
38.645014
6.8874779
38.195804
-0.80497124
-0.78585001
32.883472
-0.42561321
5.7042143
-0.49242535
7.3716314
-0.75180805
-0.75190952
0.4938935
30.68597
-3.6577946
38.720772
-4.135679
-4.1385903
3.6571767
38.422748
-5.1476824
40.569063
-3.9446483
-3.9568888
5.1392308
42.298942
-1.9784238
-4.4091462
43.725212
0.2937532
-4.6473316
44.432657
2.4826209
-4.6539259
44.244771
-4.4096327
43.205462
4.5446795
-2.2430122
-2.6237134
44.20995
5.67691
-2.0033953
42.601278
5.67984
-1.5764593
40.478206
4.4141619
-0.90255852
38.126751
-0.34025888
37.382608
-4.9344274
0.04427127
33.540313
-6.0774987
0.053894948
37.834397
-5.9598997
0.07564511
40.788985
-4.7009889
0.10517511
43.049868
-2.679446
0.13864896
44.644536
2.3397259
0.17389875
-0.25202682
45.553197
-0.27318313
45.16471
2.179535
-2.3230995
45.381792
4.3868235
-2.205817
44.863871
5.9210314
-1.9929942
43.731056
3.3840833
-1.7101917
6.2770978
42.289314
5.0710797
40.572479
3.69822
-2.8778805
3.3716909
38.64899
0.78872243
38.722421
-0.80437172
-6.8834723
32.884059
-0.42617259
5.7044096
7.3717806
0.4000802
4.3916584
2.580042
2.2012675
3.9032223
0.13705144
2.4271413
-0.30315633
-0.059768818
-0.13564176
0.52837915
16.270878
-8.9896538e-05
17.656553
0.14033257
0.13514137
17.656866
0.14018107
0.52685018
16.270186
-0.13701332
0.83545931
30.987877
-2.6864935
-16.823797
0.12822205
19.125627
-1.5552849
1.5310762
6.3718997
14.351941
4.6191684
-0.55791184
16.014615
-1.1441709
0.11022476
23.826084
-1.9870153
-1.3181757
30.994827
-3.451866
-0.36995896
27.869922
-2.5638324
2.5540745
23.613561
-22.904572
-2.5093445
-0.24170842
16.020239
-11.401671
-1.7454399
-3.9935702
19.393305
-14.045865
-1.7534856
-1.0245444
30.121621
-2.7583669
-0.43707943
16.482118
-0.20608419
-0.23828756
17.877772
0.2338433
0.14184934
17.795748
0.21510741
0.34057646
16.430042
-0.048602721
-0.26647509
32.0436
-1.4830754
0.18652529
20.945803
0.24073685
0.63103946
17.271425
-0.03060256
0.015502727
26.823456
-1.3789406
0.05788067
29.011607
-1.2233068
0.076020172
28.986315
-1.2225004
-0.58630095
26.739238
-1.3775249
-0.17979166
17.186576
-0.033573601
0.25013721
20.820326
0.24051568
-0.43915567
31.808221
-1.4665728
-0.045771285
-0.081068766
-2.201624
-0.21242602
2.4493475
-2.567334
3.0833326
-0.29718991
0.43553099
4.5301755
4.0340591
4.822208
-0.17015183
-0.83042309
-6.019297
-1.9564632
-2.489252
32.336551
-2.4756468
1.9500639
-38.982236
37.99318
-1.915116
-2.6786824
3.0936028
-3.3902615
-2.5676022
1.1748161
3.4176186
-3.6877298
-3.7281735
38.164189
-2.5402945
38.964098
-1.9516919
-4.7304949
37.513786
4.4072414
-0.97731481
-5.6436728
38.025859
-0.40813364
37.273849
-4.932665
33.502362
-6.0679457
37.793451
-5.9354696
1.6783453
40.72924
-4.6639106
2.1459841
42.947496
-2.6427795
2.434824
44.483268
-0.23027685
2.5893716
45.341678
-0.2100461
2.2858531
2.6398626
45.561868
2.2829036
45.790032
4.6127082
0.24591651
45.389762
6.3395499
0.27861746
44.446006
6.9318008
0.28246862
43.279521
1.3120286
5.7803105
0.018201439
42.835294
4.9071296
41.262984
3.2223944
-0.55119229
2.8207675
42.35073
38.195809
4.8950586
3.0687808
-3.5502775
38.838185
-5.0559376
-2.7170966
1.0377412
6.213073
0.36134101
-6.3702355
0.49356109
3.1595778
16.805949
1.5331647
-0.8368121
0.12804567
-1.5512993
19.135702
30.992501
-2.6846497
1.0299058
2.2136365
29.789019
-2.1755397
0.049160762
17.035929
0.029052245
-0.00051530787
18.060316
-0.41811206
-0.049941196
18.060784
-0.41846925
-1.0311561
17.036058
0.029136768
2.2113513
29.789445
-2.1768796
0.039245708
21.754237
-0.57137441
-0.98949486
17.363071
-0.3876224
-1.750606
25.613393
-0.9680956
1.253764
29.468784
-1.4935277
1.2094659
29.119372
-1.3232315
0.39608404
25.267972
-1.1332784
-0.16161293
17.342617
-1.0613909
-1.3170328
21.758247
-1.3286592
0.47174936
29.845369
-1.6453299
-0.25020035
17.021009
-0.041955391
-0.28956915
18.104045
-0.27797295
-0.23166389
18.096916
-0.41508747
-1.3230076
17.133469
0.20121174
1.6659423
30.200554
-1.2819357
0.037293121
22.41506
0.15826093
-0.99917585
18.148362
0.19287504
-0.075800408
26.499358
-0.54904928
0.037617245
29.99695
-1.0812141
0.1405171
29.938577
-1.0824675
1.0232133
26.416487
-0.55393856
-0.037499073
18.093155
0.18756491
-1.7083135
22.329094
0.16100412
30.053138
-1.300643
0.1341733
0.11790476
30.799881
-0.97799901
0.067822442
17.513614
-0.39479534
-0.0022768692
18.693979
-0.62884882
-0.068810285
18.695713
-17.978952
-0.62989122
-17.033638
17.518531
-0.13049769
-0.39381778
-16.298887
-1.2093345
0.10738407
0.17134236
0.44513171
-0.21761905
-0.042846371
-0.23799149
31.852004
-1.4618214
0.20859362
20.864643
0.25383981
0.6397827
17.234666
-0.033092046
0.021346076
26.790545
-1.3820902
0.075500552
29.008394
-1.2216489
0.10127503
29.010367
-1.2158228
-0.57383488
26.789785
-1.3701708
-0.14618168
17.243801
-0.023599392
0.28025963
20.909015
0.23240554
-0.3315867
31.993423
-1.476677
-0.1453952
16.415978
-0.047629433
0.23856973
17.791563
0.21734836
0.43196655
0.23556834
17.879878
1.0233465
-0.20274183
16.4883
3.9919715
30.131976
-2.7534275
-14.049524
19.394994
0.24152159
-1.7542055
-12.006135
11.417301
14.233774
9.7696827
6.8440117
22.947246
6.3553347
0.36951079
2.5507758
-2.5132663
23.60485
1.3139222
27.843932
-2.5656955
-0.1144495
30.971105
-3.4526359
0.54912857
23.85055
-1.9844831
-14.317555
-1.140319
16.037759
4.6186361
2.762224
2.3499732
-0.090566173
1.9736466
-0.26117541
2.5554535
-4.5993479
15.341521
-2.149209
-3.1646522
-3.5386576
3.9642557
0.58984508
-4.2172532
6.8408066
0.69343346
-6.4816391
-7.8790951
0.12318429
4.6589929
3.4720793
8.2519048
-0.55843573
25.337888
-4.9193777
-4.4528579
47.747145
-6.0120138
1.3455789
44.711314
1.3517162
-7.0062697
2.0439202
42.439956
-6.3441758
2.2941966
43.086952
-4.6069252
2.4685962
44.265434
2.5980998
45.180809
-2.1791228
4.5224821
4.3534672
44.231717
0.20519865
4.6668622
44.660182
2.4985159
4.6176941
44.491269
4.4133902
4.3579169
43.711606
5.5882126
3.8423759
42.308267
3.0353755
40.326196
-4.8665416
39.541276
-3.9005715
4.8212964
41.121311
-2.2122154
5.5454926
42.316203
-0.1735318
5.8997523
42.961632
1.9375405
5.9327466
43.068736
3.82554
5.6581169
42.623655
-4.1954754
5.0508628
5.0736244
41.577632
5.9103326
43.230708
6.3734859
3.8221972
41.820056
5.1571617
3.9918141
40.570761
7.1530017
40.920088
-3.4791886
5.9283837
38.370584
-5.07581
3.8982501
38.095315
4.260149
40.06296
-3.8220617
3.634075
3.5694999
38.136686
-3.0130609
4.8143088
39.704522
-1.5208161
5.6624402
40.494183
0.13259708
6.0566816
40.806302
1.7351094
6.0442742
40.747789
3.0865087
5.6164108
40.342908
4.7010157
39.551964
-1.9836596
3.4800543
37.540025
-1.0095811
4.3959908
38.054941
-0.083343323
4.9209437
37.816449
0.87288419
4.9179592
37.845507
1.9391828
4.3951612
38.128167
2.6438223
3.4934304
37.597181
0.37083971
1.2607622
38.876944
-0.73680849
0.6540167
31.006074
0.3629735
1.0422113
38.421742
-0.80315578
31.577174
-0.67667299
5.7561317
7.4430093
2.5915852
0.44727891
4.4041451
0.10378816
-0.34027882
3.0636442
-2.2355855
-0.27718868
2.4138205
3.9678251
-0.16291916
4.8014883
-0.94793275
6.0491508
-2.1482036
16.328104
0.038893439
0.27723658
-2.7248192
21.509776
-2.7729832
-0.47443436
-0.24797763
17.024056
1.3147758
29.851369
-1.640816
0.16064207
21.761979
-1.3287184
-16.007521
-0.40226906
17.34514
-1.0623897
-1.7492398
-3.1752837
20.109494
-6.2038811
-3.4264821
-4.0462752
3.892038
0.40543551
-2.3609934
0.92448422
6.9937021
-8.9836751
0.4367432
2.524054
4.2680239
5.292038
0.37943366
-2.2229335
-2.5396268
18.717405
1.1365682
27.340827
-1.4563112
-8.222963
-0.080715537
-1.2103492
25.270619
-1.253903
29.122403
-1.3268867
1.7477897
29.469862
-1.4951681
0.99255456
25.609965
-0.96651901
-0.040680989
17.35955
-0.38562526
21.752759
-0.56875516
-0.35673203
0.032117439
22.832243
-0.75176519
0.0044574403
30.724299
-1.288455
0.011047531
17.535274
-0.47525395
-0.00060758693
18.752627
-0.65877627
-0.011827165
18.75301
-0.65912307
-0.0056306304
17.535437
-0.47493006
0.3551557
30.724562
-1.2880869
0.031053841
22.832469
-0.75177818
-0.34783995
18.467857
-0.69324487
-0.34610823
26.818582
-1.1639188
0.18338873
30.324842
-1.3479312
0.47202894
30.29414
-1.4116624
0.25551425
26.7887
-1.2337553
-0.1328714
18.469524
-0.6943555
-0.5977771
22.841564
-0.61866619
-0.24867658
30.713219
-1.2020732
-0.1916748
17.512477
-0.50976955
-0.24298656
18.747012
-0.56495795
-0.17709172
18.748933
-0.69491213
-0.22761471
17.573235
-0.3588595
0.064545309
30.884037
-0.95428258
0.00202261
23.043493
-0.60038075
-0.17446519
18.668393
-0.41483615
-0.12936979
27.039131
-0.62721672
0.019983668
30.490162
-0.64776133
0.15607434
30.483058
-0.64711097
0.18595263
27.01078
-0.62746205
-0.0099657044
18.632463
-0.41823413
22.98964
-0.59187089
-0.042391321
0.014010811
23.235906
-0.21787848
0.020926779
31.090395
-0.35066091
0.0033560634
17.685311
-0.15320226
-0.0012803726
18.910423
-0.21229902
-0.0043184364
18.911108
-0.21282597
-0.018558509
17.686612
-0.15278664
-30.813455
31.094488
-0.35034532
0.054323922
-30.081699
-0.97684345
0.1353672
1.7288991
-1.2975113
0.063585375
0.17508221
22.355391
-0.9750494
18.114538
0.18528799
-0.054710144
26.471972
-0.55438258
0.061058541
29.990461
-1.0810112
0.16698026
29.954192
-1.0775364
1.0553643
26.449691
-0.54379757
-0.0048967406
18.130004
0.20057935
-1.6339852
22.393124
0.14455371
1.3303028
30.177156
-1.2793325
0.23313191
17.124864
0.20173089
0.2873927
18.093431
-0.41325869
18.104857
0.19027421
-0.24209755
18.748141
-0.56472979
0.24671275
17.514476
-0.50811377
0.59566554
30.716738
-1.1994802
0.13189812
22.843783
-0.61856427
-0.2566583
18.47068
-0.69353469
-0.47321944
26.78953
-1.233025
-0.18444441
30.294417
-1.410787
0.34511473
30.324798
-1.3474395
0.34656375
26.818355
-1.1647011
18.467601
-0.69449869
-0.0092695825
-0.095865217
18.802291
-0.22708029
-0.11691337
23.204593
-0.26277403
-0.040446115
31.086799
-0.43539162
-0.026559178
17.70344
-0.18075504
-0.0006292588
18.943899
-0.2161819
0.025933671
18.943952
-0.21646943
0.039626045
17.703547
-0.18050112
0.11592004
31.08697
-0.43512411
0.008689094
23.204709
-0.26306268
-0.096505962
18.802438
-0.2268935
-0.099248406
27.218827
-0.39475352
0.019551273
30.673006
-0.4606239
0.10862592
30.682509
-0.46831318
0.059693602
27.240433
-0.3983512
-0.065956813
18.818063
-0.22280914
-0.25186941
23.213078
-0.18676093
-0.17586438
31.064664
-0.42417092
-0.13356336
17.679071
-0.20768317
-0.14781093
18.92908
-0.16649922
-0.076905709
18.929013
-0.25004699
-0.087623277
17.71281
-0.12676212
-0.0022192842
31.134302
-0.33169827
0.0020761064
23.266857
-0.22649014
-0.033741115
18.857908
-0.15166708
-0.028441989
27.274485
-0.23470554
0.0066746646
30.702034
-0.2397629
0.038000181
30.694348
-0.23908837
0.032195033
27.254318
-0.23516387
18.836056
-0.15552009
-0.025923157
0.018220677
18.878983
-0.036577673
-0.044357168
23.286999
-0.033532796
-0.01807927
31.142693
-0.078455743
-0.00946476
17.711102
-0.034430444
-0.0014570531
18.941709
-0.039434036
0.0079756893
18.94155
-0.039991939
0.018190788
17.710439
-0.033986512
0.049577716
31.141578
-0.078186204
0.032836617
23.287226
-23.241611
-0.029557776
-18.839062
18.87814
0.031488176
-0.038176685
-18.644009
-0.0061387384
-0.028231093
-0.15928856
-0.14625152
-0.42341351
-0.031058504
-0.10211291
27.018325
-0.63291734
0.048058841
30.4835
-0.6490732
0.18604127
30.493357
-0.64400058
0.21810906
27.035199
-0.61986293
0.022819963
18.659006
-0.4079681
-0.040387148
23.03031
-0.61239056
0.23608649
30.873121
-0.95160364
0.17904474
17.569654
-0.35761198
18.747651
-0.69430855
0.1470444
-0.078129069
18.929654
-0.25005538
0.13241699
18.930625
-0.1665659
0.17427426
17.680654
-0.20682502
0.25019277
31.067021
-0.42292111
0.06529852
23.214462
-0.18692627
-0.060300708
18.818845
-0.2224663
-0.10920376
27.241037
-0.39812186
-0.02013845
30.682747
-0.46823777
0.098628857
30.672995
-0.46062929
27.218689
-0.39485639
0.014132735
-0.032684843
27.316442
-0.080783187
-0.017338844
18.879047
-0.047245078
-0.060124419
23.290951
-0.045317911
-0.038200084
31.158955
-0.094168123
-0.020181943
17.726536
-0.040938765
-0.00035792427
18.962725
-0.038271479
0.019776359
18.962661
-0.038458786
0.037707005
17.72657
-0.040780597
0.059566829
31.159036
-0.09401901
0.017025326
23.290992
-0.045487704
-0.014472885
18.879109
-0.047137867
-0.033016327
27.316503
-0.080715392
-0.025121163
30.758293
-0.093784542
-0.013458266
30.764067
-0.093112663
-0.024134876
27.329038
-0.07874507
-0.047308061
18.887318
-0.047756875
-0.11494583
23.29292
-0.014642806
-0.093643232
31.138295
-0.095112926
-0.066671299
17.707137
-0.055093455
-0.069899565
18.947619
-0.015008103
-0.030160133
18.947942
-0.058348538
-0.022172892
17.724732
-0.019480286
0.01125191
31.168649
-0.067427294
0.012396223
23.307707
-0.042250428
0.0075993099
18.895293
-0.032496942
0.0026837647
27.331247
-0.051323829
-0.0028092677
30.761473
-0.054256392
-0.0096787936
30.754313
-0.055074785
27.31435
-0.053929101
-0.029750479
0.022352584
27.345601
-0.026799829
-0.029484121
18.897174
-0.020310082
-0.046423384
23.304702
-0.0021684187
-0.024503406
31.153118
-0.032840812
-0.01105338
17.713365
-0.016333554
-0.0015679998
18.942747
-0.011071134
0.0090724173
18.942227
-0.01186049
0.022664288
17.711969
-0.015712552
0.046199124
31.149987
-0.032380462
0.030864881
23.302529
-0.0012431232
0.033421564
18.894902
-0.020525404
-27.312931
27.343113
0.028333526
-0.026707673
-27.256336
0.029109287
-0.055010832
8.0153952e-05
-0.23968678
0.036190398
30.693634
-0.24130768
0.067901063
30.70143
-0.23728282
0.062047807
27.274326
-0.22946917
0.014431597
18.856106
-0.14698051
0.01838049
23.262437
-0.23522755
0.093312672
31.132192
-0.33043809
17.712813
-0.12602225
0.030272801
-0.024495882
17.726653
-0.019264637
0.068821031
18.949724
-0.058332336
0.06563897
18.949379
-0.015277098
0.092357244
17.708516
-0.054625042
0.1137294
31.140047
-0.094564191
0.046822846
23.293815
-0.014859764
0.023740464
18.887817
-0.047556391
0.013140504
27.329427
-0.078602116
0.024817203
30.764229
-0.093051229
30.758315
-0.093787218
0.01250877
-0.027551928
30.799932
-0.028658408
-0.0059990532
27.35915
-0.026320299
-0.018966655
18.908647
-0.018570167
-0.041705272
23.320625
-0.0087303346
-0.026693781
31.177418
-0.034205619
-0.012742111
17.72919
-0.017227764
-0.00016175429
18.960708
-0.010997124
0.012517894
18.96065
-0.01110281
0.026419738
17.729187
-0.017141185
0.041418241
31.177437
-0.034132098
0.01880773
23.320644
-0.0088314875
0.0058295727
18.908676
-0.018525869
-0.01266426
27.359168
-0.02629535
-0.027710915
30.799913
-0.02866301
-0.035276786
30.79786
-0.027746183
-0.037567533
27.354763
-0.02495393
-0.036085833
18.903749
-0.019307836
-0.062685526
23.311146
0.0066579453
-0.045092817
31.153536
-0.033481289
-0.028917477
17.712334
-0.022117499
-0.026433829
18.946178
-0.0015977638
-0.0075256251
18.948058
-0.019548488
0.0019528883
17.723763
-0.0090670513
0.022312362
31.175007
-0.027264436
0.016040427
23.323301
-0.010414825
0.01431978
18.912855
-0.016624737
0.005868534
27.363286
-0.024238052
-0.0084619913
30.799921
-0.027044811
30.791962
-0.02789866
-0.022171431
0.01049369
30.834597
-0.034678044
-0.026962309
27.38009
-0.032595527
-0.026307288
18.918662
-0.024191373
-0.040896405
23.325461
-0.0079777252
-0.020081663
31.169547
-0.038287656
-0.0093284524
17.721651
-0.020210563
-0.0015553026
18.949489
-0.015602078
0.0072058737
18.948895
-0.016517419
0.017237688
17.720264
-0.019498175
0.037603551
31.166284
-0.037722128
0.024548469
23.32276
-0.0089237893
0.025104276
18.916321
-0.023725255
0.020426847
27.377805
-0.032091936
-30.79041
30.833869
0.0089092279
-0.034218242
-30.75195
0.015571722
-0.027538428
0.02507066
-0.055340234
0.017511641
30.761254
-0.053787734
0.0069022249
27.333624
-0.049924742
-0.0041668142
18.896836
-0.030473586
-0.0035014022
23.308303
-0.046946016
31.171354
-0.066990576
-0.0023087956
0.021023651
31.179362
-0.027320552
0.0067588797
17.72624
-0.0092303759
0.025058363
18.950139
-0.019236477
0.027993179
18.947831
-0.0019329201
0.044062525
17.713477
-0.021767185
0.061797407
31.154838
-0.033171373
0.035735546
23.311723
0.0064579627
0.037296987
18.90406
-0.019185142
0.035085549
27.354998
-0.024870967
30.797957
-0.027709687
0.018523496
-0.027518652
30.836919
-0.032097015
0.0042189086
30.844289
-0.032550106
-0.0084836021
27.399639
-0.030137632
-0.016184547
18.935883
-0.021620984
-0.031067971
23.347379
-0.013817165
-0.016412917
31.19947
-0.037948406
-0.0079510906
17.739363
-0.019874577
-8.4575724e-05
18.968092
-0.016364628
0.0078377548
18.96803
-0.016415795
0.016264991
17.73935
-0.01983096
0.030915366
31.199458
-0.037917061
0.01610361
23.347375
-0.013870328
0.00839962
18.935888
-0.02159901
-0.0043004569
27.399642
-0.030128432
-0.018610432
30.844275
-0.032554107
-0.027637238
30.836866
-0.032116513
-0.028624744
27.38333
-0.029544216
-0.025644645
18.921098
-0.022024952
-0.039235055
23.32821
-0.0052562305
-0.021469443
31.170619
-0.036000627
-0.012365051
17.72266
-0.020712411
-0.0082099684
18.953772
-0.012927433
0.00091836586
18.956986
-0.019229317
0.0071974055
17.733056
-0.016818577
0.023054954
31.193416
-0.035473219
0.014197158
23.345693
-0.015229985
0.01059586
18.935983
-0.021116547
0.0025289758
27.400264
-0.030461901
30.843971
-0.03397668
-0.0099119492
0.00046055626
30.883146
-0.032653034
-0.017885243
30.87297
-0.033142419
-0.020398765
27.411063
-0.031061044
-0.020019927
18.938652
-0.022723508
-0.030935828
23.344772
-0.010694112
-0.01401866
31.187285
-0.036389423
-0.0067873409
17.731988
-0.019410343
-0.0013442209
18.958585
-0.016293932
0.0048676015
18.95807
-0.01714729
0.011094031
17.730915
-0.018731923
0.026728115
31.184715
-0.035837746
0.017111209
23.342452
-0.012355885
0.016341154
18.936763
-0.022043628
0.012958428
27.409132
-0.030555126
0.0047174038
30.87222
-0.03287609
-30.845154
30.884021
-0.0043277626
-0.03265775
-30.800881
-0.0039818354
-0.033790788
0.00060322815
-0.026731146
-0.009952134
27.36633
-0.023935332
-0.013909578
18.915533
-0.016151349
23.326
-0.011786451
-0.025422198
0.015519602
23.348718
-0.01455774
-0.0090384555
31.197541
-0.035750478
-0.0021169199
17.73526
-0.017175372
0.0067518523
18.958819
-0.018707579
0.01158021
18.955081
-0.013245654
0.020682094
17.723518
-0.020407005
0.038611416
31.171537
-0.035762964
0.025404385
23.328569
-0.0054067931
0.028443949
18.921279
-0.021948789
27.383463
-0.029496981
0.016633896
-0.017594968
27.41124
-0.029347404
0.0098745466
30.87296
-0.031973947
0.00025175993
30.883182
-0.032149958
-0.0071340284
27.433884
-0.029594656
-0.012048953
18.959141
-0.020867446
-0.02202751
23.370402
-0.015408136
-0.0097174687
31.221284
-0.036006941
-0.0049467325
17.751565
-0.018882755
-4.6409938e-05
18.978566
-0.017175528
0.0048830499
18.978505
-0.017205894
0.009649958
17.751529
-0.018859291
0.021960196
31.22125
-0.035986207
0.012014432
23.370388
-0.015432266
0.007095593
18.959136
-0.020859524
-0.00029000995
27.433885
-0.029593872
-0.0099208738
30.883182
-0.032157772
-0.016703517
30.872937
-0.031985981
-0.017706844
27.411173
-0.029377033
-0.016712612
18.93884
-0.021058308
-0.025134771
23.345378
-0.011003243
-0.010742343
31.188816
-0.0344105
-0.00574927
17.734372
-0.018630572
-0.0021375472
18.964311
-0.015993268
0.0026494662
18.968319
-0.017963804
0.006134653
17.745347
-0.017713592
0.017800525
31.214685
-0.034837442
0.010066225
23.367713
-0.016583974
0.0058384144
18.958075
-0.020336627
27.433307
-0.029477973
-0.0019631238
-0.0022713197
27.457208
-0.023009501
-0.0079102249
30.911011
-0.025397655
-0.012566583
30.900022
-0.02574041
-0.013558282
27.432979
-0.024147371
-0.013454126
18.953075
-0.017585597
-0.020713765
23.3585
-0.0093945998
-0.0086767446
31.200726
-0.02799764
-0.0043851331
17.740163
-0.015071517
-0.0010332363
18.965842
-0.013112089
0.0028813817
18.965448
-0.013802687
0.0062441321
17.739451
-0.014521035
0.016921127
31.198995
-0.027522959
0.01062926
23.356844
-0.011026902
0.0094248653
18.951808
-0.016940912
0.0073645776
27.431654
-0.023724102
0.0023115108
30.899478
-0.025595334
-0.0031802148
30.911581
-0.025491186
-27.435359
27.458575
-0.0063006576
-0.023381488
-27.40285
-0.0096831522
-0.029815223
-0.012056941
-0.030621241
18.93854
-0.021413991
-0.012736177
18.960067
-0.020913515
-0.021459873
23.370216
-0.0150736
-0.0083864541
31.217805
-0.035189126
-0.003885653
17.746966
-0.01811814
0.00084257359
18.969679
-0.017407752
0.0051338492
18.965229
-0.016261836
0.010171401
17.734956
-0.018386446
0.024717586
31.189409
-0.034232072
0.016561655
23.345587
-0.011103516
18.938944
-0.021007471
0.0096062318
-0.0099638012
18.952727
-0.016499425
0.0087401486
27.432267
-0.023382462
0.0044781187
30.899353
-0.025485315
-0.0011047763
30.910888
-0.025560389
-0.00494002
27.4579
-0.023494525
-0.0080659133
18.975565
-0.01647012
-0.014445596
23.386543
-0.012727595
-0.005451996
31.237421
-0.027752921
-0.0029486775
17.761062
-0.014659448
-2.4488212e-05
18.986932
-0.013832647
0.0029233044
18.986859
-0.013844568
0.0054210981
17.761026
-0.014654048
0.014417119
31.237381
-0.027753215
0.0080510088
23.386527
-0.012739237
0.0049260769
18.97556
-0.016472307
0.0010897278
27.457901
-0.02350034
-0.0044989866
30.910892
-0.025565978
-0.0087758933
30.899345
-0.025496456
-0.0096685599
27.432234
-0.023403406
-0.010054984
18.952676
-0.016531617
-0.015480933
23.358602
-0.010712331
-0.0054620142
31.20302
-0.026824967
-0.0029303198
17.743513
-0.014338273
-0.00053069619
18.972772
-0.013421668
0.0020612274
18.977196
-0.014035558
0.0036309582
17.755216
-0.014120003
0.011431034
31.231281
-0.027053035
0.006000052
23.38396
-0.013773797
18.974445
-0.015836328
0.00012456971
-0.0030755943
18.98473
-0.011307653
-0.0023405761
27.472045
-0.016436835
-0.0055283432
30.928125
-0.01811093
-0.0077794401
30.916522
-0.018346647
-0.0079085425
27.44634
-0.017223705
-0.0081374469
18.961939
-0.012512743
-0.012552663
23.366694
-0.0074341116
-0.0046470642
31.209041
-0.019569461
-0.0025238151
17.745326
-0.010696325
-0.00070906181
18.970383
-0.0096430959
0.001477553
18.9701
-0.010131696
0.002907475
17.744896
-0.010295887
0.0097252568
31.208021
-0.019222226
0.0059615075
23.36565
-0.0086995741
0.0046641676
18.961197
-0.01200122
0.0036389332
27.445561
-0.01689493
0.0010405538
30.916195
-0.018245904
-0.0017770963
30.928449
-0.018195652
-0.0033231554
27.472834
-0.016743372
-18.975758
18.985485
-0.0051895717
-0.01179145
-0.0086947988
-0.016433446
-0.014903615
23.385708
-0.01222679
-0.0056385275
31.233314
-0.027381241
-0.0030952387
17.75625
-0.014479888
-0.00047875953
18.978082
-0.013562239
0.0024900313
18.973338
-0.01361971
0.0050788579
17.743874
-0.014153748
0.015218246
31.203373
-0.026691729
23.358713
-0.010776336
0.0055431434
-0.0088026006
23.367092
-0.0087661107
0.0045556723
18.961707
-0.011895895
0.004018084
27.445739
-0.016939487
0.0017679234
30.915938
-0.018452725
-0.0010223227
30.928017
-0.018489468
-0.0027688529
27.472609
-0.017004153
-0.0048791155
18.985645
-0.011912769
-0.0087176369
23.396246
-0.0095431995
-0.0026266811
31.247384
-0.019462937
-0.0016011544
17.767038
-0.010440907
-8.4910804e-06
18.992172
-0.010142238
0.001590502
18.992096
-0.010144335
0.0026202485
17.766994
-0.01043729
0.008718071
31.247341
-0.019465025
0.0048813723
23.39623
-0.0095474804
0.002768599
18.985641
-0.011920663
0.0010209935
27.47261
-0.017010842
-0.001772796
30.928022
-0.018496507
-0.0040318756
30.915945
-0.018466255
-0.0045856412
27.445732
-0.016957593
-0.0055905158
18.961685
-0.011916509
-0.0089579571
23.367045
-0.0087361237
-0.0024798532
31.212154
-0.019013896
-0.0014971119
17.749333
-0.010249011
-0.00020129142
18.978135
-0.0099836354
0.0011178811
18.982778
-0.010229544
0.0014492912
17.761547
-0.010125059
0.0064182129
31.241847
-0.018976218
23.394013
-0.01039332
0.0013708938
-0.0033072878
23.399429
-0.0078812231
-0.00091634676
18.990378
-0.0080970976
-0.0021020493
27.480159
-0.011718349
-0.0034252979
30.937428
-0.012877811
-0.0041585493
30.925439
-0.013031395
-0.0038793017
27.453533
-0.012222254
-0.0044724373
18.966704
-0.0088539982
-0.0070039146
23.370913
-0.0060719695
-0.0019308789
31.213471
-0.013609756
-0.0012585993
17.748089
-0.0075912253
-0.00043204261
18.972791
-0.0072521333
0.00061422299
18.972591
-0.0075584483
0.00083028668
17.747854
-0.0073359692
0.0051879965
31.212914
-0.013375235
0.0030434952
23.370315
-0.0069011829
0.0017317349
18.96632
-0.0085086462
0.0013981018
27.453128
-0.01199539
0.00042258445
30.925263
-0.012956297
-0.00065232759
30.937591
-0.012936898
-0.0012164094
27.480564
-0.011932334
-0.0027706194
18.990761
-0.0084273877
-23.395086
23.400026
-0.0050311576
-0.007067431
-0.0090687721
-0.0091680736
-0.0029363466
31.243015
-0.019226488
-0.0018576593
17.76213
-0.010391478
-0.00049115845
18.983295
-0.0098851681
0.0012088587
18.978447
-0.010117014
0.0022413535
17.749532
-0.010122917
31.212346
-0.018925029
0.0047858866
-0.00053817177
31.217277
-0.013307056
0.0028356814
23.371669
-0.007007159
0.0016174774
18.966749
-0.0085205685
0.0014545128
27.453269
-0.012127681
0.00060717121
30.925114
-0.013192026
-0.00043851949
30.937397
-0.013206535
-0.0010409697
27.480605
-0.012166277
-0.0026677624
18.991113
-0.0085548647
-0.0048759858
23.401343
-0.0072798301
-0.00079027625
31.252726
-0.013563996
-0.00072670677
17.77025
-0.007448801
-2.3968879e-06
18.99497
-0.0075530882
0.00073188383
18.994882
-0.0075499011
0.00079817831
17.770206
-0.0074528583
0.0048895493
31.252679
-0.013572488
0.002672778
23.401327
-0.007277911
0.0010495627
18.991109
-0.008561353
0.00044727019
27.480614
-0.012180255
-0.00060146587
30.93741
-0.01322152
-0.0014550757
30.925129
-0.013204152
-0.0016278674
27.453278
-0.012142113
-0.0028607933
18.966752
-0.0085384213
-0.0048688243
23.371658
-0.0069942054
-0.00067473225
31.217187
-0.013368937
-0.00067257404
17.752513
-0.007360892
-0.00013455942
18.981034
-0.0074790226
0.00042567541
18.98579
-0.0076192802
2.1251304e-05
17.765012
-0.007252599
31.247632
-0.013236281
0.001692414
0.00074454138
31.250301
-0.0098133404
0.00054940596
23.4019
-0.0062933441
-0.0012719946
18.993029
-0.0061501808
-0.0016385515
27.48397
-0.0087778219
-0.0018563529
30.941774
-0.0095469288
-0.0017531367
30.929584
-0.0096340989
-0.0013234285
27.456856
-0.0090598808
-0.0022249237
18.968888
-0.0065693773
-0.0036760465
23.372724
-0.0053071429
-0.00027349493