/*--------------------------------*- C++ -*----------------------------------*\
  =========                 |
  \\      /  F ield         | OpenFOAM: The Open Source CFD Toolbox
   \\    /   O peration     | Website:  https://openfoam.org
    \\  /    A nd           | Version:  7
     \\/     M anipulation  |
\*---------------------------------------------------------------------------*/
FoamFile
{
    version     2.0;
    format      ascii;
    class       volScalarField;
    location    "200";
    object      rho;
}
// * * * * * * * * * * * * * * * * * * * * * * * * * * * * * * * * * * * * * //

dimensions      [1 -3 0 0 0 0 0];

internalField   nonuniform List<scalar> 
24866
(
1.173925
1.1739244
1.1739245
1.1739247
1.1739248
1.1739248
1.1739248
1.1739248
1.1739248
1.1739248
1.1739248
1.1739248
1.1739248
1.1739248
1.1739248
1.1739248
1.1739247
1.1739248
1.1739247
1.1739247
1.1739247
1.1739247
1.1739248
1.1739248
1.1739247
1.1739247
1.1739247
1.1739248
1.1739248
1.1739247
1.1739247
1.1739247
1.1739247
1.1739247
1.1739248
1.1739248
1.1739248
1.1739247
1.1739247
1.1739247
1.1739248
1.1739248
1.1739248
1.1739247
1.1739247
1.1739248
1.1739248
1.1739247
1.1739248
1.1739248
1.1739248
1.1739248
1.1739248
1.1739248
1.1739248
1.1739248
1.1739248
1.1739248
1.1739248
1.1739248
1.1739251
1.1739253
1.1739251
1.1739251
1.1739253
1.1739255
1.1739252
1.1739251
1.1739253
1.1739253
1.1739253
1.1739253
1.1739251
1.1739252
1.1739255
1.1739253
1.173925
1.1739251
1.1739253
1.173925
1.173925
1.1739252
1.1739253
1.1739255
1.1739256
1.1739252
1.1739251
1.1739252
1.1739251
1.1739252
1.1739255
1.1739257
1.1739265
1.1739265
1.1739263
1.173926
1.1739256
1.1739262
1.1739257
1.1739261
1.1739268
1.1739275
1.1739268
1.1739272
1.1739275
1.1739275
1.1739272
1.1739264
1.173926
1.1739254
1.1739252
1.173925
1.173925
1.1739253
1.1739256
1.1739262
1.1739268
1.1739275
1.1739281
1.1739284
1.1739284
1.1739281
1.1739288
1.1739281
1.1739273
1.1739265
1.1739257
1.1739259
1.1739267
1.1739275
1.1739284
1.1739292
1.1739297
1.1739292
1.1739292
1.1739288
1.1739281
1.1739272
1.1739268
1.173926
1.1739256
1.1739252
1.173925
1.173925
1.1739249
1.1739249
1.173925
1.1739246
1.1739247
1.1739247
1.1739246
1.1739247
1.1739245
1.1739246
1.1739246
1.1739245
1.1739246
1.1739247
1.1739246
1.1739245
1.1739244
1.1739245
1.1739246
1.1739246
1.1739247
1.1739247
1.1739246
1.1739248
1.1739247
1.1739247
1.1739247
1.1739248
1.1739248
1.1739247
1.1739247
1.1739247
1.1739248
1.1739247
1.173925
1.1739251
1.173925
1.1739249
1.1739252
1.173925
1.1739252
1.1739253
1.1739258
1.1739257
1.1739263
1.1739257
1.1739261
1.1739265
1.1739257
1.1739259
1.1739267
1.1739276
1.1739285
1.1739292
1.1739297
1.1739297
1.1739297
1.1739292
1.1739284
1.1739275
1.1739265
1.1739264
1.1739255
1.1739254
1.1739254
1.1739252
1.1739251
1.1739246
1.1739246
1.1739247
1.1739246
1.1739244
1.1739245
1.1739245
1.1739244
1.1739245
1.1739244
1.1739244
1.1739245
1.1739245
1.1739245
1.1739244
1.1739243
1.1739243
1.1739245
1.1739243
1.1739245
1.1739245
1.1739244
1.1739246
1.1739245
1.1739244
1.1739245
1.1739245
1.1739245
1.1739245
1.1739244
1.1739245
1.1739246
1.1739242
1.1739239
1.173924
1.173924
1.1739239
1.1739244
1.1739247
1.1739248
1.1739247
1.1739247
1.1739248
1.1739248
1.1739248
1.1739248
1.1739247
1.1739247
1.1739248
1.1739246
1.1739247
1.1739247
1.1739246
1.1739247
1.1739245
1.1739246
1.1739247
1.1739246
1.1739245
1.1739246
1.1739247
1.1739246
1.1739245
1.1739246
1.173925
1.173925
1.173925
1.173925
1.1739252
1.1739251
1.1739254
1.1739252
1.1739252
1.1739251
1.1739252
1.1739257
1.1739256
1.1739265
1.1739275
1.1739284
1.1739292
1.1739288
1.1739292
1.1739292
1.1739288
1.1739281
1.1739273
1.1739268
1.1739275
1.1739281
1.1739285
1.1739285
1.1739281
1.1739275
1.1739281
1.1739272
1.1739263
1.1739255
1.1739254
1.173926
1.1739268
1.1739263
1.1739268
1.1739273
1.1739276
1.1739276
1.1739273
1.1739268
1.1739261
1.1739265
1.1739267
1.1739267
1.1739265
1.1739261
1.1739257
1.1739253
1.1739256
1.1739252
1.173925
1.1739251
1.1739249
1.173925
1.173925
1.1739249
1.1739252
1.1739252
1.173925
1.1739249
1.1739244
1.1739245
1.1739244
1.1739243
1.1739244
1.1739251
1.1739251
1.1739254
1.1739254
1.173925
1.1739252
1.1739251
1.173925
1.1739251
1.1739245
1.1739245
1.1739245
1.1739245
1.1739244
1.1739244
1.1739241
1.1739242
1.1739239
1.173924
1.173924
1.1739239
1.1739242
1.173924
1.1739239
1.1739241
1.1739241
1.1739241
1.1739241
1.1739239
1.173924
1.1739241
1.1739239
1.173924
1.173924
1.1739239
1.1739242
1.1739241
1.173924
1.1739241
1.1739242
1.1739242
1.1739241
1.173924
1.1739241
1.1739236
1.1739237
1.1739233
1.1739235
1.1739235
1.1739233
1.1739237
1.1739242
1.1739246
1.1739245
1.1739244
1.1739245
1.1739245
1.1739245
1.1739245
1.1739244
1.1739245
1.1739246
1.1739244
1.1739245
1.1739245
1.173924
1.1739239
1.1739242
1.173924
1.1739239
1.1739241
1.1739241
1.1739241
1.1739241
1.173924
1.1739234
1.1739235
1.1739237
1.1739233
1.1739235
1.1739235
1.1739233
1.1739237
1.1739235
1.1739234
1.1739236
1.1739236
1.1739236
1.1739236
1.1739234
1.1739235
1.1739237
1.1739233
1.1739235
1.1739235
1.1739233
1.1739237
1.1739235
1.1739234
1.1739236
1.1739237
1.1739237
1.1739236
1.1739234
1.1739227
1.1739228
1.173923
1.1739225
1.1739228
1.1739228
1.1739225
1.173923
1.1739228
1.1739227
1.1739234
1.173924
1.1739241
1.1739242
1.1739242
1.1739241
1.173924
1.1739241
1.1739242
1.1739239
1.173924
1.1739235
1.1739235
1.1739233
1.1739237
1.1739236
1.1739234
1.1739236
1.1739237
1.1739237
1.1739236
1.173923
1.1739227
1.1739228
1.1739231
1.1739225
1.1739228
1.1739228
1.1739225
1.173923
1.1739228
1.1739227
1.1739229
1.173923
1.173923
1.1739229
1.1739226
1.1739228
1.173923
1.1739225
1.1739227
1.1739227
1.1739225
1.173923
1.1739228
1.1739227
1.1739229
1.173923
1.173923
1.1739229
1.173922
1.1739216
1.1739218
1.1739221
1.1739214
1.1739217
1.1739217
1.1739214
1.1739221
1.1739218
1.1739216
1.173922
1.173923
1.1739236
1.1739237
1.1739237
1.1739236
1.1739234
1.1739236
1.1739237
1.1739233
1.1739225
1.1739228
1.1739228
1.1739225
1.1739231
1.1739229
1.1739227
1.173923
1.173923
1.173923
1.1739221
1.173922
1.1739216
1.1739218
1.1739221
1.1739214
1.1739217
1.1739217
1.1739214
1.1739221
1.1739218
1.1739216
1.173922
1.1739221
1.1739221
1.173922
1.1739216
1.1739218
1.1739221
1.1739214
1.1739217
1.1739217
1.1739214
1.1739221
1.1739218
1.1739216
1.173922
1.173922
1.173922
1.1739207
1.1739206
1.1739201
1.1739204
1.1739208
1.1739198
1.1739203
1.1739203
1.1739198
1.1739208
1.1739204
1.1739201
1.1739206
1.1739207
1.1739221
1.173923
1.173923
1.173923
1.1739227
1.1739228
1.1739231
1.1739221
1.1739214
1.1739217
1.1739217
1.1739214
1.1739221
1.1739218
1.1739216
1.173922
1.1739221
1.1739208
1.1739208
1.1739207
1.1739201
1.1739204
1.1739208
1.1739199
1.1739203
1.1739203
1.1739199
1.1739208
1.1739204
1.1739201
1.1739206
1.1739207
1.1739207
1.1739206
1.1739201
1.1739204
1.1739208
1.1739198
1.1739203
1.1739203
1.1739198
1.1739208
1.1739204
1.1739201
1.1739206
1.1739207
1.173919
1.173919
1.1739188
1.1739181
1.1739185
1.173919
1.1739178
1.1739184
1.1739184
1.1739178
1.173919
1.1739185
1.1739181
1.1739188
1.173919
1.173919
1.1739207
1.1739221
1.173922
1.1739216
1.1739218
1.1739204
1.1739208
1.1739199
1.1739203
1.1739203
1.1739199
1.1739208
1.1739204
1.1739201
1.1739207
1.1739189
1.173919
1.173919
1.1739189
1.1739182
1.1739186
1.1739191
1.1739179
1.1739184
1.1739184
1.1739179
1.1739191
1.1739186
1.1739182
1.1739188
1.173919
1.173919
1.1739188
1.1739181
1.1739186
1.173919
1.1739178
1.1739184
1.1739184
1.1739178
1.173919
1.1739185
1.1739181
1.1739188
1.1739166
1.1739168
1.1739168
1.1739166
1.1739158
1.1739163
1.1739169
1.1739155
1.1739161
1.1739161
1.1739155
1.1739169
1.1739163
1.1739158
1.1739166
1.1739168
1.1739168
1.1739166
1.1739188
1.1739206
1.1739201
1.1739182
1.1739186
1.1739191
1.1739179
1.1739184
1.1739184
1.1739179
1.1739191
1.1739186
1.1739182
1.1739159
1.1739167
1.1739169
1.1739169
1.1739167
1.1739159
1.1739164
1.173917
1.1739155
1.1739162
1.1739162
1.1739155
1.1739169
1.1739163
1.1739158
1.1739166
1.1739168
1.1739168
1.1739166
1.1739158
1.1739163
1.1739169
1.1739155
1.1739161
1.1739161
1.1739155
1.1739169
1.1739163
1.1739158
1.1739132
1.1739141
1.1739143
1.1739143
1.1739141
1.1739132
1.1739138
1.1739144
1.1739129
1.1739137
1.1739137
1.1739129
1.1739144
1.1739138
1.1739132
1.1739141
1.1739143
1.1739143
1.1739141
1.1739132
1.1739158
1.1739163
1.1739169
1.1739155
1.1739162
1.1739162
1.1739155
1.173917
1.1739164
1.1739139
1.1739133
1.1739142
1.1739144
1.1739144
1.1739142
1.1739133
1.1739139
1.1739145
1.173913
1.1739138
1.1739138
1.173913
1.1739145
1.1739138
1.1739132
1.1739141
1.1739143
1.1739143
1.1739141
1.1739132
1.1739138
1.1739145
1.1739129
1.1739137
1.1739137
1.1739129
1.1739145
1.1739138
1.1739115
1.1739109
1.1739117
1.1739119
1.1739119
1.1739117
1.1739108
1.1739115
1.1739121
1.1739107
1.1739115
1.1739115
1.1739107
1.1739121
1.1739115
1.1739108
1.1739117
1.1739119
1.1739119
1.1739117
1.1739109
1.1739115
1.1739138
1.1739145
1.173913
1.1739138
1.1739138
1.173913
1.1739145
1.1739123
1.1739116
1.173911
1.1739118
1.173912
1.173912
1.1739118
1.173911
1.1739116
1.1739123
1.1739108
1.1739116
1.1739116
1.1739108
1.1739122
1.1739116
1.1739109
1.1739118
1.1739119
1.1739119
1.1739117
1.1739109
1.1739115
1.1739122
1.1739107
1.1739115
1.1739115
1.1739107
1.1739122
1.1739106
1.1739101
1.1739095
1.1739101
1.1739101
1.1739101
1.1739101
1.1739095
1.17391
1.1739106
1.1739095
1.1739102
1.1739102
1.1739095
1.1739106
1.17391
1.1739095
1.1739101
1.1739101
1.1739101
1.1739101
1.1739095
1.1739101
1.1739107
1.1739122
1.1739108
1.1739116
1.1739116
1.1739108
1.1739097
1.1739107
1.1739102
1.1739096
1.1739102
1.1739103
1.1739103
1.1739102
1.1739096
1.1739102
1.1739107
1.1739097
1.1739103
1.1739103
1.1739097
1.1739107
1.1739101
1.1739096
1.1739101
1.1739102
1.1739102
1.1739101
1.1739095
1.1739101
1.1739106
1.1739096
1.1739102
1.1739102
1.1739096
1.1739103
1.1739108
1.1739105
1.1739101
1.1739104
1.1739103
1.1739103
1.1739104
1.1739101
1.1739105
1.1739108
1.1739103
1.1739107
1.1739107
1.1739103
1.1739108
1.1739105
1.1739101
1.1739104
1.1739103
1.1739103
1.1739104
1.1739102
1.1739106
1.1739109
1.1739104
1.1739097
1.1739103
1.1739103
1.1739109
1.1739105
1.173911
1.1739107
1.1739103
1.1739106
1.1739105
1.1739105
1.1739105
1.1739103
1.1739107
1.173911
1.1739105
1.1739109
1.1739109
1.1739104
1.1739109
1.1739106
1.1739102
1.1739105
1.1739103
1.1739103
1.1739104
1.1739102
1.1739105
1.1739108
1.1739103
1.1739108
1.1739108
1.1739135
1.1739134
1.1739133
1.1739133
1.1739132
1.1739132
1.173913
1.173913
1.1739132
1.1739132
1.1739133
1.1739133
1.1739134
1.1739135
1.1739135
1.1739134
1.1739133
1.1739133
1.1739132
1.1739132
1.1739131
1.1739131
1.1739132
1.1739133
1.1739134
1.1739135
1.1739135
1.1739137
1.1739109
1.1739115
1.1739103
1.1739115
1.1739112
1.1739097
1.1739114
1.1739106
1.1739103
1.1739103
1.1739106
1.1739114
1.1739128
1.1739134
1.1739135
1.1739135
1.1739135
1.1739137
1.1739137
1.1739135
1.1739135
1.1739134
1.1739133
1.1739133
1.1739131
1.1739131
1.1739132
1.1739133
1.1739133
1.1739134
1.1739134
1.1739136
1.1739181
1.1739181
1.1739182
1.1739177
1.1739179
1.173918
1.1739178
1.1739176
1.1739176
1.1739177
1.173918
1.1739179
1.1739177
1.1739182
1.1739181
1.1739181
1.1739182
1.1739177
1.1739179
1.1739181
1.1739178
1.1739177
1.1739177
1.1739179
1.1739182
1.173918
1.1739178
1.1739183
1.1739182
1.1739183
1.1739137
1.1739135
1.1739135
1.1739135
1.1739134
1.1739134
1.1739133
1.1739133
1.1739134
1.173918
1.1739182
1.1739181
1.1739179
1.1739184
1.1739182
1.1739182
1.1739183
1.1739178
1.173918
1.1739182
1.1739179
1.1739177
1.1739177
1.1739178
1.1739181
1.1739179
1.1739177
1.1739182
1.1739241
1.1739237
1.1739237
1.1739241
1.1739232
1.1739235
1.1739239
1.1739234
1.1739232
1.1739232
1.1739234
1.1739239
1.1739235
1.1739232
1.1739241
1.1739237
1.1739237
1.1739241
1.1739232
1.1739236
1.173924
1.1739235
1.1739233
1.1739233
1.1739235
1.1739241
1.1739237
1.1739233
1.1739242
1.1739239
1.1739239
1.1739242
1.1739184
1.1739179
1.1739181
1.1739183
1.173918
1.1739179
1.1739179
1.1739235
1.1739236
1.1739241
1.1739237
1.1739233
1.1739242
1.1739238
1.1739238
1.1739242
1.1739233
1.1739236
1.173924
1.1739235
1.1739233
1.1739233
1.1739235
1.173924
1.1739236
1.1739232
1.1739293
1.1739305
1.17393
1.17393
1.1739305
1.1739293
1.1739298
1.1739304
1.1739296
1.1739295
1.1739295
1.1739297
1.1739304
1.1739298
1.1739293
1.1739306
1.17393
1.17393
1.1739306
1.1739294
1.1739299
1.1739305
1.1739298
1.1739296
1.1739296
1.1739298
1.1739306
1.1739299
1.1739295
1.1739306
1.1739301
1.1739301
1.1739306
1.1739295
1.1739234
1.1739237
1.1739241
1.1739236
1.1739235
1.1739297
1.1739296
1.1739298
1.1739305
1.1739299
1.1739294
1.1739306
1.1739301
1.1739301
1.1739306
1.1739294
1.1739299
1.1739305
1.1739298
1.1739296
1.1739295
1.1739297
1.1739305
1.1739298
1.1739366
1.173936
1.1739373
1.1739367
1.1739366
1.1739373
1.173936
1.1739365
1.1739373
1.1739365
1.1739364
1.1739364
1.1739365
1.1739373
1.1739366
1.173936
1.1739374
1.1739367
1.1739367
1.1739374
1.1739361
1.1739367
1.1739374
1.1739366
1.1739365
1.1739365
1.1739366
1.1739374
1.1739366
1.1739361
1.1739374
1.1739367
1.1739367
1.1739373
1.1739361
1.1739366
1.17393
1.1739305
1.1739298
1.1739366
1.1739364
1.1739364
1.1739365
1.1739373
1.1739366
1.173936
1.1739373
1.1739367
1.1739367
1.1739373
1.1739361
1.1739366
1.1739374
1.1739366
1.1739364
1.1739364
1.1739366
1.1739373
1.1739439
1.173943
1.1739425
1.1739438
1.1739431
1.1739431
1.1739437
1.1739425
1.173943
1.1739439
1.1739431
1.173943
1.173943
1.1739431
1.1739439
1.1739431
1.1739425
1.1739438
1.1739432
1.1739432
1.1739439
1.1739426
1.1739431
1.173944
1.1739432
1.1739431
1.1739431
1.1739431
1.1739439
1.173943
1.1739425
1.1739437
1.173943
1.173943
1.1739437
1.1739424
1.1739429
1.1739437
1.1739373
1.1739329
1.1739324
1.1739318
1.1739318
1.1739324
1.1739329
1.1739395
1.1739437
1.1739429
1.1739424
1.1739436
1.173943
1.173943
1.1739437
1.1739425
1.173943
1.1739438
1.1739431
1.173943
1.173943
1.1739431
1.1739486
1.1739493
1.1739485
1.173948
1.1739492
1.1739486
1.1739486
1.1739492
1.173948
1.1739485
1.1739493
1.1739486
1.1739486
1.1739486
1.1739487
1.1739494
1.1739486
1.1739481
1.1739493
1.1739487
1.1739487
1.1739493
1.1739481
1.1739486
1.1739494
1.1739487
1.1739486
1.1739486
1.1739486
1.1739493
1.1739484
1.173948
1.1739491
1.1739484
1.1739484
1.173949
1.1739479
1.1739483
1.1739491
1.1739484
1.173943
1.1739429
1.1739429
1.173943
1.1739484
1.1739491
1.1739483
1.1739479
1.173949
1.1739484
1.1739484
1.1739491
1.173948
1.1739484
1.1739493
1.1739486
1.1739485
1.1739485
1.1739531
1.1739531
1.1739538
1.173953
1.1739526
1.1739537
1.1739531
1.1739531
1.1739537
1.1739526
1.173953
1.1739538
1.1739532
1.1739531
1.1739531
1.1739532
1.1739539
1.1739531
1.1739527
1.1739538
1.1739532
1.1739532
1.1739538
1.1739527
1.1739532
1.1739539
1.1739532
1.1739532
1.1739531
1.1739531
1.1739538
1.1739529
1.1739526
1.1739536
1.1739529
1.1739529
1.1739534
1.1739524
1.1739528
1.1739535
1.1739529
1.1739528
1.1739483
1.1739483
1.1739528
1.1739529
1.1739535
1.1739528
1.1739524
1.1739535
1.1739529
1.1739529
1.1739535
1.1739525
1.1739529
1.1739537
1.1739531
1.173953
1.1739568
1.1739568
1.1739569
1.1739575
1.1739568
1.1739565
1.1739574
1.1739569
1.1739569
1.1739574
1.1739565
1.1739568
1.1739575
1.1739569
1.1739569
1.1739569
1.173957
1.1739576
1.1739569
1.1739566
1.1739575
1.173957
1.173957
1.1739575
1.1739566
1.1739569
1.1739576
1.173957
1.1739569
1.1739569
1.1739569
1.1739575
1.1739567
1.1739564
1.1739572
1.1739567
1.1739567
1.1739571
1.1739562
1.1739565
1.1739572
1.1739566
1.1739565
1.1739565
1.1739566
1.1739572
1.1739565
1.1739562
1.1739571
1.1739567
1.1739567
1.1739572
1.1739563
1.1739567
1.1739574
1.1739568
1.1739598
1.1739598
1.1739598
1.1739599
1.1739604
1.1739598
1.1739596
1.1739604
1.17396
1.17396
1.1739604
1.1739596
1.1739599
1.1739605
1.17396
1.17396
1.17396
1.17396
1.1739605
1.1739599
1.1739597
1.1739605
1.1739601
1.1739601
1.1739605
1.1739597
1.17396
1.1739605
1.17396
1.17396
1.1739599
1.1739599
1.1739604
1.1739597
1.1739595
1.1739602
1.1739597
1.1739597
1.1739601
1.1739593
1.1739595
1.1739601
1.1739596
1.1739596
1.1739596
1.1739596
1.1739601
1.1739596
1.1739593
1.1739601
1.1739597
1.1739597
1.1739602
1.1739594
1.1739597
1.1739603
1.1739626
1.1739621
1.1739621
1.1739621
1.1739622
1.1739626
1.1739622
1.1739619
1.1739626
1.1739623
1.1739623
1.1739627
1.173962
1.1739622
1.1739627
1.1739623
1.1739623
1.1739623
1.1739623
1.1739628
1.1739623
1.173962
1.1739627
1.1739624
1.1739624
1.1739627
1.1739621
1.1739623
1.1739628
1.1739623
1.1739623
1.1739622
1.1739622
1.1739626
1.1739621
1.1739618
1.1739625
1.1739621
1.1739621
1.1739623
1.1739617
1.1739619
1.1739623
1.1739619
1.1739619
1.1739619
1.1739619
1.1739624
1.1739619
1.1739617
1.1739624
1.1739621
1.1739621
1.1739625
1.1739618
1.173962
1.1739637
1.1739642
1.1739638
1.1739638
1.1739638
1.1739638
1.1739643
1.1739639
1.1739637
1.1739644
1.1739641
1.1739641
1.1739644
1.1739638
1.173964
1.1739644
1.173964
1.173964
1.173964
1.173964
1.1739644
1.173964
1.1739638
1.1739644
1.1739642
1.1739641
1.1739645
1.1739639
1.173964
1.1739644
1.173964
1.173964
1.1739639
1.1739639
1.1739643
1.1739638
1.1739637
1.1739642
1.1739638
1.1739639
1.1739641
1.1739635
1.1739637
1.173964
1.1739636
1.1739636
1.1739636
1.1739637
1.1739641
1.1739637
1.1739635
1.1739641
1.1739639
1.1739639
1.1739642
1.1739636
1.1739649
1.173965
1.1739654
1.173965
1.173965
1.173965
1.173965
1.1739654
1.1739651
1.173965
1.1739656
1.1739653
1.1739653
1.1739656
1.173965
1.1739652
1.1739656
1.1739652
1.1739651
1.1739651
1.1739652
1.1739656
1.1739653
1.1739651
1.1739656
1.1739654
1.1739654
1.1739656
1.1739651
1.1739653
1.1739656
1.1739652
1.1739651
1.1739651
1.1739651
1.1739655
1.1739651
1.1739649
1.1739654
1.1739651
1.1739651
1.1739653
1.1739647
1.1739649
1.1739652
1.1739648
1.1739648
1.1739648
1.1739649
1.1739653
1.173965
1.1739648
1.1739654
1.1739652
1.1739651
1.1739654
1.1739664
1.1739659
1.1739658
1.173966
1.1739657
1.1739658
1.1739658
1.1739658
1.1739661
1.1739659
1.1739659
1.1739665
1.1739662
1.1739662
1.1739666
1.1739661
1.1739661
1.1739664
1.1739661
1.173966
1.173966
1.1739661
1.1739664
1.1739662
1.1739661
1.1739666
1.1739663
1.1739663
1.1739666
1.1739661
1.1739662
1.1739664
1.1739661
1.173966
1.173966
1.173966
1.1739664
1.1739661
1.173966
1.1739664
1.1739661
1.1739661
1.1739663
1.1739658
1.1739659
1.1739661
1.1739659
1.1739658
1.1739658
1.1739659
1.1739662
1.173966
1.1739659
1.1739664
1.1739661
1.1739661
1.1739666
1.1739668
1.1739663
1.1739665
1.1739667
1.1739664
1.1739665
1.1739665
1.1739664
1.1739667
1.1739666
1.1739663
1.1739669
1.1739667
1.1739666
1.1739668
1.1739663
1.1739666
1.1739666
1.1739663
1.1739662
1.1739662
1.1739663
1.1739666
1.1739666
1.1739663
1.1739669
1.1739667
1.1739667
1.1739669
1.1739663
1.1739666
1.1739667
1.1739663
1.1739662
1.1739662
1.1739662
1.1739666
1.1739665
1.1739663
1.1739667
1.1739665
1.1739665
1.1739667
1.1739661
1.1739661
1.1739662
1.1739662
1.1739661
1.1739661
1.1739661
1.1739665
1.1739664
1.1739662
1.1739667
1.1739666
1.1739676
1.1739676
1.1739675
1.1739669
1.1739672
1.1739671
1.173967
1.173967
1.1739671
1.1739673
1.173967
1.1739676
1.1739677
1.1739677
1.1739676
1.1739671
1.1739674
1.1739674
1.173967
1.173967
1.173967
1.173967
1.1739674
1.1739674
1.1739671
1.1739676
1.1739678
1.1739678
1.1739676
1.1739671
1.1739675
1.1739674
1.173967
1.173967
1.173967
1.173967
1.1739674
1.1739674
1.173967
1.1739675
1.1739676
1.1739676
1.1739674
1.1739669
1.1739677
1.1739679
1.1739671
1.1739669
1.1739669
1.1739669
1.1739673
1.1739673
1.173967
1.1739675
1.1739674
1.1739674
1.1739664
1.1739653
1.1739637
1.1739624
1.1739616
1.1739618
1.1739628
1.173964
1.1739653
1.1739664
1.1739674
1.1739674
1.1739662
1.1739653
1.1739632
1.1739599
1.173958
1.1739566
1.1739565
1.1739577
1.1739597
1.1739631
1.1739654
1.1739662
1.1739674
1.1739674
1.1739662
1.1739662
1.1739662
1.1739664
1.1739648
1.1739659
1.1739659
1.1739653
1.1739658
1.1739648
1.1739664
1.1739663
1.1739661
1.1739659
1.1739662
1.173965
1.1739662
1.1739659
1.1739651
1.1739647
1.1739649
1.1739657
1.1739661
1.1739662
1.1739674
1.1739674
1.1739661
1.1739663
1.1739661
1.1739647
1.1739659
1.1739658
1.1739665
1.173965
1.1739648
1.1739654
1.1739637
1.1739651
1.1739654
1.1739659
1.1739664
1.1739668
1.1739668
1.1739661
1.1739658
1.1739647
1.1739635
1.1739651
1.1739658
1.1739654
1.1739671
1.173966
1.1739662
1.1739662
1.1739672
1.173967
1.1739658
1.1739655
1.1739652
1.1739645
1.1739661
1.173966
1.1739659
1.173965
1.1739646
1.1739646
1.1739643
1.1739646
1.173965
1.1739649
1.173965
1.1739639
1.1739624
1.1739621
1.1739624
1.1739639
1.1739636
1.173962
1.1739633
1.1739619
1.1739617
1.173962
1.1739635
1.1739633
1.1739619
1.1739616
1.173963
1.1739643
1.1739648
1.1739631
1.1739637
1.1739647
1.1739617
1.1739638
1.1739633
1.1739613
1.1739594
1.1739632
1.1739627
1.173958
1.1739584
1.1739597
1.1739506
1.1739558
1.1739607
1.1739639
1.1739651
1.1739646
1.1739633
1.1739614
1.1739642
1.1739645
1.1739653
1.1739664
1.1739666
1.1739666
1.1739666
1.1739666
1.1739664
1.1739653
1.1739654
1.1739652
1.1739652
1.1739654
1.1739644
1.1739642
1.1739628
1.1739632
1.1739642
1.1739657
1.1739631
1.1739583
1.1739501
1.1739493
1.1739491
1.1739491
1.1739492
1.17395
1.1739514
1.1739535
1.1739565
1.1739565
1.1739535
1.1739514
1.1739501
1.1739493
1.1739493
1.1739493
1.1739493
1.1739502
1.1739514
1.1739535
1.1739565
1.1739565
1.1739597
1.1739638
1.173966
1.1739671
1.1739673
1.1739662
1.1739662
1.1739662
1.1739662
1.1739672
1.1739671
1.173966
1.1739638
1.1739598
1.1739566
1.1739564
1.1739536
1.1739515
1.1739502
1.1739494
1.1739494
1.1739494
1.1739494
1.1739502
1.1739513
1.1739534
1.1739564
1.1739565
1.1739535
1.1739514
1.1739501
1.1739512
1.1739563
1.1739675
1.1739784
1.1739854
1.1739852
1.173978
1.1739671
1.173956
1.1739511
1.1739502
1.1739515
1.1739578
1.1739625
1.1739652
1.1739647
1.1739616
1.1739565
1.1739495
1.1739502
1.1739503
1.1739545
1.1739668
1.1739784
1.1739876
1.1739952
1.1740025
1.1740073
1.1740104
1.1740105
1.1740075
1.1740029
1.1739956
1.1739882
1.1739789
1.1739674
1.1739882
1.1739985
1.1740078
1.1740156
1.1740214
1.1740245
1.1740245
1.1740212
1.1740152
1.1740073
1.1739979
1.1739875
1.1739949
1.1739775
1.1739587
1.1739504
1.1739511
1.1739494
1.1739494
1.1739565
1.1739616
1.1739647
1.1739652
1.1739625
1.1739577
1.1739502
1.1739494
1.1739503
1.1739511
1.1739614
1.1739614
1.1739844
1.1740069
1.1740022
1.174015
1.1740072
1.1740173
1.1740257
1.1740323
1.1740359
1.174036
1.1740325
1.174026
1.1740178
1.1740079
1.1739957
1.1739783
1.174003
1.1740157
1.1740262
1.1740349
1.174042
1.1740458
1.1740457
1.1740418
1.1740345
1.1740256
1.1740322
1.1740209
1.1740242
1.1740099
1.17401
1.1739844
1.174007
1.1740211
1.1740242
1.1740359
1.1740358
1.1740457
1.1740417
1.1740496
1.1740539
1.174054
1.1740498
1.1740422
1.1740328
1.1740217
1.1740078
1.1739853
1.1740108
1.1740249
1.1740364
1.1740461
1.1740542
1.1740585
1.1740584
1.1740539
1.174054
1.1740458
1.174042
1.1740324
1.1740258
1.1740152
1.1740023
1.1739775
1.1739586
1.1739544
1.1739502
1.17395
1.1739514
1.1739535
1.173952
1.1739504
1.1739509
1.1739557
1.1739667
1.1739875
1.173995
1.1740073
1.1740175
1.1740259
1.1740348
1.174042
1.1740498
1.1740541
1.1740585
1.1740586
1.1740542
1.1740461
1.1740364
1.1740249
1.1740108
1.1739852
1.1740078
1.1740217
1.1740328
1.1740422
1.17405
1.1740542
1.174046
1.174046
1.1740361
1.1740325
1.1740212
1.1740153
1.1740073
1.1739979
1.1739875
1.1739782
1.1739666
1.1739774
1.173995
1.1740024
1.1740071
1.1740102
1.1740245
1.1740245
1.1740362
1.1740326
1.1740422
1.174035
1.1740262
1.1740157
1.174003
1.173978
1.1739955
1.1740078
1.1740178
1.1740261
1.1740154
1.1740213
1.1740071
1.1740102
1.1739844
1.1739844
1.1739612
1.1739585
1.1739543
1.1739508
1.17395
1.173952
1.1739546
1.1739442
1.1739446
1.1739354
1.1739375
1.173933
1.1739345
1.1739346
1.1739331
1.1739378
1.1739358
1.173945
1.1739536
1.1739521
1.1739547
1.1739522
1.1739502
1.1739504
1.1739507
1.1739515
1.1739516
1.1739508
1.1739505
1.1739502
1.1739521
1.1739546
1.1739521
1.1739505
1.1739513
1.173955
1.1739594
1.1739622
1.1739622
1.1739592
1.1739548
1.1739512
1.1739505
1.1739492
1.1739451
1.1739361
1.1739382
1.1739337
1.1739354
1.1739354
1.1739339
1.1739382
1.1739361
1.1739451
1.1739447
1.1739498
1.1739449
1.1739493
1.1739465
1.1739436
1.1739523
1.1739546
1.1739454
1.1739581
1.1739764
1.1739696
1.17396
1.1739497
1.1739465
1.1739358
1.1739435
1.1739377
1.1739503
1.1739548
1.173959
1.1739503
1.173951
1.1739618
1.1739617
1.173951
1.1739502
1.1739588
1.1739545
1.173967
1.1739785
1.1739877
1.1739951
1.1740025
1.1739775
1.1739667
1.1739557
1.1739509
1.1739499
1.1739501
1.1739374
1.1739328
1.1739343
1.1739344
1.173933
1.1739452
1.1739544
1.1739523
1.1739599
1.1739715
1.1739708
1.1739718
1.1739797
1.1739791
1.1739902
1.1739791
1.1739798
1.1739878
1.1739997
1.1739914
1.1739863
1.1739929
1.1739983
1.1739944
1.1740057
1.1740085
1.1740007
1.1740129
1.1740008
1.1739864
1.1739694
1.1739915
1.1739945
1.1739997
1.1740059
1.1739985
1.173993
1.1740086
1.1740154
1.1739978
1.1739763
1.173958
1.1739579
1.1739451
1.1739543
1.173952
1.1739433
1.1739354
1.1739462
1.1739492
1.1739596
1.1739693
1.1739762
1.1740009
1.1740009
1.1740095
1.1740059
1.1740084
1.1740136
1.1740167
1.1740188
1.1740344
1.1740302
1.1740226
1.174026
1.1740149
1.1740258
1.1740224
1.174033
1.1740365
1.1740459
1.1740338
1.1740133
1.1740056
1.1739977
1.1740007
1.1740091
1.1740081
1.1740163
1.1740184
1.1740151
1.17403
1.174034
1.1740384
1.1740509
1.1740462
1.1740417
1.1740513
1.1740418
1.174046
1.1740341
1.1740389
1.1740512
1.1740465
1.1740565
1.1740622
1.1740564
1.174062
1.1740563
1.1740616
1.1740681
1.1740742
1.1740673
1.174055
1.1740378
1.1740328
1.1740246
1.174012
1.1740172
1.1740312
1.1740434
1.1740314
1.1740248
1.1740393
1.1740494
1.1740542
1.1740401
1.1740461
1.1740604
1.1740639
1.1740411
1.1740114
1.1739698
1.1739626
1.1739517
1.1739448
1.1739505
1.173958
1.1739681
1.1739749
1.1739747
1.1739453
1.1739581
1.1739544
1.1739522
1.1739436
1.1739464
1.1739495
1.1739597
1.1739693
1.1739763
1.1740006
1.174009
1.174008
1.1740055
1.1739975
1.1740149
1.1740184
1.1740162
1.1740131
1.1740054
1.173998
1.1739926
1.173986
1.173991
1.173994
1.1739993
1.1740003
1.1740082
1.1740221
1.1740298
1.1740339
1.1740384
1.1740336
1.1740456
1.1740508
1.1740461
1.1740414
1.1740327
1.1740362
1.1740255
1.1740145
1.1740125
1.1740221
1.1740256
1.1740337
1.1740457
1.1740561
1.1740619
1.1740562
1.174051
1.1740563
1.1740615
1.174068
1.1740619
1.1740509
1.1740461
1.1740414
1.1740298
1.1740339
1.1740385
1.1740162
1.174013
1.1740054
1.1739992
1.1739873
1.1739793
1.1739787
1.1739711
1.1739596
1.1739704
1.1739715
1.1739793
1.1739786
1.1739897
1.1740002
1.1739858
1.173969
1.173991
1.173994
1.1739979
1.1739924
1.1740081
1.1740148
1.1739972
1.1739759
1.1740054
1.174008
1.1740089
1.1740003
1.1740182
1.1740183
1.174034
1.1740462
1.1740563
1.1740616
1.1740617
1.1740565
1.1740465
1.1740344
1.1740188
1.1740167
1.1740095
1.1740085
1.174006
1.1739978
1.1740154
1.1740136
1.174006
1.1739985
1.1739929
1.1740087
1.1740007
1.1739863
1.1739915
1.1739946
1.1739998
1.1740151
1.1740262
1.1740342
1.174039
1.1740513
1.1740462
1.1740419
1.1740303
1.1740226
1.1740332
1.1740368
1.1740261
1.1740226
1.1740129
1.1740006
1.1740076
1.1739982
1.1739879
1.1739789
1.1739795
1.1739716
1.1739877
1.17399
1.1739788
1.1739595
1.1739711
1.1739705
1.1739795
1.1739913
1.1739997
1.1739944
1.1740058
1.1740084
1.1739926
1.173969
1.173986
1.1739983
1.1740057
1.1740134
1.1740342
1.1740462
1.1740566
1.1740622
1.1740681
1.1740622
1.1740565
1.1740514
1.1740419
1.1740464
1.1740512
1.1740389
1.1740343
1.1740302
1.1740152
1.1740185
1.1740165
1.1740083
1.1740092
1.1739759
1.1739974
1.1740005
1.1740005
1.1740185
1.1740343
1.1740464
1.1740565
1.1740621
1.1740681
1.174062
1.1740564
1.1740513
1.1740417
1.174046
1.174051
1.1740386
1.1740339
1.17403
1.1740224
1.174033
1.1740418
1.1740461
1.1740512
1.1740389
1.1740341
1.1740301
1.1740224
1.174026
1.1740366
1.1740259
1.1740149
1.1740127
1.1740005
1.1740083
1.174015
1.1740132
1.1740163
1.1740081
1.174009
1.1739759
1.1740003
1.1739973
1.1740055
1.1739981
1.1740056
1.1739944
1.1739996
1.1739912
1.1739691
1.1739925
1.1739859
1.1739787
1.1739898
1.1740005
1.1740084
1.1740151
1.1740133
1.1740165
1.1740083
1.1740093
1.1739759
1.1739974
1.1740057
1.1739983
1.1740057
1.1739944
1.1739996
1.1739912
1.1739691
1.1739926
1.1739859
1.1739787
1.1739595
1.1739794
1.1739876
1.1739716
1.1739794
1.1739595
1.173971
1.1739704
1.1739492
1.1739503
1.1739577
1.1739679
1.1739746
1.1739745
1.1739677
1.1739576
1.1739504
1.1739577
1.1739678
1.1739624
1.1739696
1.1740112
1.1739951
1.1739925
1.1739611
1.1739388
1.1739483
1.1739581
1.1739628
1.1739644
1.1739647
1.1739634
1.1739642
1.1739634
1.1739646
1.1739647
1.1739644
1.1739646
1.1739633
1.1739615
1.1739595
1.1739599
1.1739585
1.1739478
1.1739477
1.1739482
1.1739514
1.1739563
1.1739609
1.1739563
1.1739559
1.1739599
1.173964
1.173966
1.173965
1.1739619
1.1739601
1.1739595
1.1739582
1.173959
1.1739625
1.1739572
1.1739572
1.1739625
1.1739655
1.1739655
1.1739638
1.1739638
1.1739628
1.1739642
1.1739644
1.1739632
1.1739642
1.1739657
1.1739631
1.1739582
1.1739599
1.1739641
1.1739661
1.1739662
1.1739654
1.1739632
1.1739597
1.1739577
1.1739564
1.1739564
1.1739577
1.1739597
1.1739631
1.1739653
1.1739663
1.1739675
1.1739675
1.1739664
1.1739653
1.1739638
1.1739625
1.1739616
1.1739616
1.1739624
1.1739638
1.1739653
1.1739664
1.1739675
1.1739675
1.1739663
1.1739662
1.173966
1.1739659
1.1739665
1.1739648
1.1739663
1.1739651
1.1739647
1.1739643
1.1739646
1.1739636
1.1739634
1.1739631
1.1739631
1.1739633
1.1739635
1.173962
1.17396
1.1739574
1.1739572
1.1739572
1.1739578
1.1739604
1.1739601
1.1739604
1.1739578
1.1739575
1.173956
1.1739572
1.1739598
1.1739597
1.17396
1.1739573
1.1739572
1.1739598
1.1739595
1.1739568
1.173956
1.1739563
1.1739571
1.1739547
1.1739572
1.1739586
1.1739606
1.173959
1.1739603
1.1739631
1.173962
1.1739606
1.1739602
1.1739615
1.1739568
1.1739583
1.1739572
1.1739558
1.1739542
1.1739584
1.1739587
1.1739556
1.1739535
1.1739523
1.1739434
1.1739482
1.1739523
1.1739552
1.173956
1.1739586
1.1739598
1.1739619
1.1739633
1.173962
1.1739606
1.173959
1.1739617
1.1739631
1.1739603
1.1739583
1.173962