/*--------------------------------*- C++ -*----------------------------------*\
  =========                 |
  \\      /  F ield         | OpenFOAM: The Open Source CFD Toolbox
   \\    /   O peration     | Website:  https://openfoam.org
    \\  /    A nd           | Version:  7
     \\/     M anipulation  |
\*---------------------------------------------------------------------------*/
FoamFile
{
    version     2.0;
    format      ascii;
    class       volScalarField;
    location    "200";
    object      T;
}
// * * * * * * * * * * * * * * * * * * * * * * * * * * * * * * * * * * * * * //

dimensions      [0 0 0 1 0 0 0];

internalField   nonuniform List<scalar> 
24866
(
299.99997
299.99996
299.99996
299.99998
300
300
300
300
300
300
300
300
300
300
300
300
300
300
300
300
300
300
300
300
300
300
300
300
300
300
300
300
300
300
300
300
300
300
300
300
300
300
300
300
300
300
300
300
300
300
300
300
300
300
300
300
300
300
300
300
300
300
300
300
300
300
300
300
300
300
300
300
300
300
300
300
300
300
300
300
300
300
300
300
300
300
300
300
300
300
300
300
300
300
300
300
300
300
300
300
300
300
300
300
300
300
300
300
300
300
300
300
300
300
300
300
300
300
300
300
300
300
300.00001
300
300
300
300
300
300
300
300
300.00001
300.00001
300.00001
300.00001
300.00001
300
300
300
300
300
300
300
300
300
300
299.99999
299.99998
299.99999
299.99999
299.99998
299.99999
299.99999
300
300
299.99999
299.99999
299.99999
299.99999
299.99999
299.99998
299.99998
299.99999
299.99998
299.99998
299.99998
299.99998
299.99999
299.99998
299.99998
299.99998
299.99998
299.99998
299.99998
299.99998
299.99998
299.99999
299.99998
299.99999
299.99999
300
300
299.99999
299.99998
299.99999
299.99999
300
300
300
300
300
300
300
300
300
300
300
300.00001
300.00001
300.00001
300.00001
300.00001
300
300
300
300
300
300
299.99999
299.99999
299.99999
300
299.99999
299.99999
299.99997
299.99996
299.99996
299.99996
299.99996
299.99997
299.99997
299.99997
299.99997
299.99997
299.99997
299.99997
299.99997
299.99997
299.99997
299.99996
299.99996
299.99996
299.99996
299.99997
299.99996
299.99996
299.99996
299.99996
299.99996
299.99996
299.99996
299.99996
299.99996
299.99994
299.99993
299.99993
299.99993
299.99993
299.99996
299.99998
299.99999
299.99998
299.99998
299.99998
299.99998
299.99998
299.99998
299.99998
299.99998
299.99999
299.99998
299.99998
299.99998
299.99998
299.99999
299.99998
299.99999
300
300
299.99999
299.99999
299.99999
299.99999
299.99999
300
299.99999
299.99999
299.99999
299.99998
299.99999
299.99999
299.99999
299.99999
300
300
300
300
300
300
300
300
300.00001
300.00001
300.00001
300.00001
300.00001
300
300
300
300
300
300
300
300
300
300
300
300
300
300
300
300
300
300
300
300
300
300
300
300
300
300
300
300
300
300
300
300
300
300
300
300
299.99999
299.99999
300
299.99999
299.99999
299.99998
299.99997
299.99996
299.99997
299.99997
299.99997
299.99998
299.99999
299.99999
299.99999
299.99999
299.99999
299.99999
299.99998
299.99999
299.99998
299.99997
299.99997
299.99997
299.99997
299.99997
299.99997
299.99994
299.99994
299.99994
299.99994
299.99994
299.99993
299.99994
299.99994
299.99994
299.99994
299.99994
299.99994
299.99994
299.99994
299.99994
299.99994
299.99993
299.99993
299.99993
299.99993
299.99994
299.99994
299.99993
299.99994
299.99994
299.99994
299.99994
299.99993
299.99993
299.9999
299.9999
299.99989
299.99989
299.99989
299.99989
299.9999
299.99994
299.99996
299.99996
299.99996
299.99996
299.99996
299.99996
299.99996
299.99996
299.99996
299.99997
299.99996
299.99996
299.99996
299.99993
299.99993
299.99994
299.99994
299.99994
299.99994
299.99994
299.99994
299.99994
299.99994
299.9999
299.9999
299.9999
299.9999
299.9999
299.9999
299.9999
299.9999
299.9999
299.9999
299.99991
299.99991
299.99991
299.99991
299.9999
299.9999
299.9999
299.9999
299.9999
299.9999
299.9999
299.9999
299.9999
299.9999
299.9999
299.9999
299.9999
299.9999
299.9999
299.99985
299.99985
299.99985
299.99984
299.99984
299.99984
299.99984
299.99985
299.99985
299.99985
299.9999
299.99993
299.99994
299.99994
299.99994
299.99994
299.99993
299.99994
299.99994
299.99993
299.99993
299.9999
299.9999
299.9999
299.9999
299.9999
299.9999
299.99991
299.99991
299.99991
299.99991
299.99986
299.99986
299.99986
299.99986
299.99985
299.99985
299.99985
299.99985
299.99986
299.99986
299.99986
299.99986
299.99987
299.99987
299.99986
299.99986
299.99985
299.99986
299.99985
299.99985
299.99985
299.99984
299.99985
299.99985
299.99985
299.99986
299.99986
299.99986
299.99986
299.99979
299.99978
299.99978
299.99978
299.99977
299.99977
299.99977
299.99977
299.99978
299.99978
299.99978
299.99979
299.99986
299.9999
299.9999
299.9999
299.9999
299.9999
299.9999
299.9999
299.9999
299.99985
299.99985
299.99985
299.99985
299.99986
299.99986
299.99986
299.99986
299.99987
299.99987
299.9998
299.9998
299.99979
299.99979
299.99979
299.99978
299.99978
299.99978
299.99978
299.99979
299.99979
299.99979
299.9998
299.9998
299.9998
299.9998
299.99979
299.99979
299.99979
299.99978
299.99978
299.99978
299.99977
299.99978
299.99978
299.99978
299.99979
299.9998
299.9998
299.99971
299.9997
299.99969
299.99969
299.99969
299.99968
299.99968
299.99968
299.99968
299.99969
299.99969
299.99969
299.9997
299.99971
299.9998
299.99986
299.99986
299.99986
299.99985
299.99985
299.99985
299.99979
299.99978
299.99978
299.99978
299.99978
299.99979
299.99979
299.99979
299.9998
299.9998
299.99972
299.99972
299.99971
299.9997
299.9997
299.9997
299.99969
299.99969
299.99969
299.99969
299.9997
299.9997
299.9997
299.99971
299.99972
299.99972
299.99971
299.9997
299.9997
299.9997
299.99968
299.99968
299.99968
299.99968
299.99969
299.99969
299.99969
299.9997
299.99971
299.9996
299.9996
299.99959
299.99957
299.99957
299.99957
299.99955
299.99955
299.99955
299.99955
299.99957
299.99957
299.99957
299.99959
299.9996
299.9996
299.99971
299.9998
299.99979
299.99978
299.99978
299.99969
299.99969
299.99968
299.99968
299.99968
299.99968
299.9997
299.9997
299.9997
299.99971
299.9996
299.99961
299.99961
299.9996
299.99958
299.99958
299.99958
299.99956
299.99956
299.99956
299.99956
299.99958
299.99958
299.99958
299.9996
299.9996
299.9996
299.9996
299.99958
299.99958
299.99958
299.99956
299.99956
299.99956
299.99956
299.99957
299.99957
299.99957
299.99959
299.99944
299.99945
299.99945
299.99944
299.99942
299.99942
299.99942
299.9994
299.9994
299.9994
299.9994
299.99942
299.99942
299.99942
299.99944
299.99945
299.99945
299.99944
299.99959
299.9997
299.99969
299.99957
299.99957
299.99957
299.99956
299.99956
299.99956
299.99956
299.99958
299.99958
299.99958
299.99944
299.99945
299.99946
299.99946
299.99945
299.99944
299.99943
299.99943
299.99942
299.99941
299.99941
299.99942
299.99943
299.99943
299.99943
299.99945
299.99946
299.99946
299.99945
299.99943
299.99943
299.99943
299.99941
299.99941
299.99941
299.99941
299.99942
299.99942
299.99943
299.99926
299.99927
299.99928
299.99928
299.99927
299.99926
299.99925
299.99925
299.99924
299.99924
299.99924
299.99924
299.99925
299.99925
299.99926
299.99927
299.99928
299.99928
299.99927
299.99926
299.99943
299.99942
299.99942
299.99941
299.99941
299.99941
299.99941
299.99943
299.99943
299.99926
299.99927
299.99928
299.99929
299.99929
299.99928
299.99927
299.99926
299.99926
299.99926
299.99925
299.99925
299.99926
299.99926
299.99926
299.99927
299.99928
299.99929
299.99929
299.99928
299.99927
299.99926
299.99926
299.99925
299.99925
299.99924
299.99925
299.99925
299.99925
299.9991
299.99911
299.9991
299.9991
299.9991
299.9991
299.9991
299.99909
299.99909
299.9991
299.99909
299.99909
299.9991
299.99909
299.99909
299.9991
299.9991
299.9991
299.9991
299.9991
299.99911
299.9991
299.99925
299.99925
299.99925
299.99925
299.99925
299.99925
299.99926
299.9991
299.99911
299.99912
299.99912
299.99912
299.99912
299.99912
299.99912
299.99911
299.9991
299.99911
299.99911
299.99911
299.99911
299.9991
299.99911
299.99912
299.99911
299.99911
299.99911
299.99911
299.99911
299.9991
299.9991
299.99911
299.9991
299.9991
299.99911
299.99909
299.99901
299.99901
299.99902
299.999
299.99899
299.99899
299.999
299.99902
299.99901
299.999
299.99903
299.99902
299.99902
299.99903
299.999
299.99901
299.99902
299.999
299.99899
299.99899
299.999
299.99902
299.99901
299.99901
299.9991
299.99911
299.9991
299.9991
299.99911
299.99904
299.99902
299.99902
299.99903
299.99902
299.99901
299.99901
299.99902
299.99903
299.99903
299.99902
299.99904
299.99904
299.99903
299.99904
299.99901
299.99902
299.99903
299.99901
299.999
299.999
299.99901
299.99903
299.99902
299.99901
299.99904
299.99903
299.99903
299.99903
299.9991
299.99906
299.99907
299.99908
299.99905
299.99903
299.99903
299.99905
299.99907
299.99907
299.99906
299.99909
299.99909
299.99909
299.99909
299.99906
299.99907
299.99907
299.99905
299.99903
299.99903
299.99905
299.99908
299.99907
299.99907
299.99911
299.99904
299.99903
299.99903
299.9991
299.99911
299.99907
299.99908
299.99909
299.99906
299.99905
299.99905
299.99906
299.99909
299.99908
299.99907
299.99911
299.9991
299.9991
299.99911
299.99907
299.99908
299.99909
299.99906
299.99904
299.99904
299.99906
299.99908
299.99907
299.99906
299.9991
299.99909
299.99909
299.99932
299.99932
299.99928
299.99929
299.99929
299.99927
299.99925
299.99925
299.99926
299.99929
299.99929
299.99928
299.99932
299.99931
299.99931
299.99932
299.99928
299.99929
299.99929
299.99926
299.99925
299.99925
299.99927
299.9993
299.9993
299.99929
299.99933
299.99933
299.9991
299.99896
299.99881
299.99896
299.99883
299.99869
299.99891
299.99881
299.99874
299.99874
299.99881
299.99891
299.9991
299.99931
299.99931
299.9993
299.99933
299.99933
299.99933
299.99933
299.99929
299.9993
299.9993
299.99927
299.99926
299.99926
299.99927
299.9993
299.9993
299.99929
299.99933
299.99932
299.99968
299.99968
299.99968
299.99964
299.99965
299.99965
299.99962
299.99961
299.9996
299.99962
299.99965
299.99965
299.99964
299.99967
299.99967
299.99967
299.99967
299.99964
299.99965
299.99965
299.99962
299.9996
299.99961
299.99962
299.99966
299.99966
299.99965
299.99969
299.99969
299.99969
299.99933
299.99933
299.9993
299.99931
299.99931
299.99928
299.99927
299.99927
299.99928
299.99964
299.99967
299.99967
299.99966
299.99969
299.99969
299.99969
299.99969
299.99965
299.99966
299.99966
299.99963
299.99961
299.99961
299.99963
299.99966
299.99965
299.99965
299.99968
300.00013
300.00013
300.00013
300.00013
300.0001
300.00011
300.0001
300.00007
300.00006
300.00006
300.00007
300.0001
300.0001
300.0001
300.00013
300.00013
300.00013
300.00013
300.0001
300.0001
300.0001
300.00007
300.00006
300.00006
300.00008
300.00011
300.00011
300.00011
300.00014
300.00014
300.00014
300.00014
299.99969
299.99966
299.99967
299.99967
299.99964
299.99963
299.99963
300.00008
300.00009
300.00012
300.00012
300.00011
300.00014
300.00014
300.00014
300.00014
300.00011
300.00012
300.00011
300.00008
300.00007
300.00007
300.00008
300.00011
300.00011
300.0001
300.00063
300.00065
300.00066
300.00066
300.00065
300.00063
300.00064
300.00063
300.00061
300.00059
300.00059
300.0006
300.00062
300.00063
300.00063
300.00065
300.00066
300.00066
300.00065
300.00063
300.00063
300.00063
300.00061
300.0006
300.0006
300.00061
300.00063
300.00064
300.00064
300.00066
300.00067
300.00067
300.00066
300.00064
300.00011
300.00012
300.00012
300.00009
300.00008
300.00061
300.00061
300.00062
300.00064
300.00065
300.00064
300.00066
300.00067
300.00067
300.00066
300.00064
300.00064
300.00063
300.00061
300.0006
300.0006
300.00061
300.00063
300.00064
300.00121
300.0012
300.00121
300.00122
300.00122
300.00121
300.0012
300.0012
300.00119
300.00118
300.00118
300.00118
300.00118
300.00119
300.0012
300.0012
300.00121
300.00122
300.00122
300.00121
300.0012
300.0012
300.00119
300.00118
300.00118
300.00118
300.00118
300.00119
300.00121
300.0012
300.00121
300.00122
300.00122
300.00122
300.0012
300.00121
300.00065
300.00064
300.00062
300.00119
300.00118
300.00118
300.00119
300.0012
300.00121
300.0012
300.00121
300.00122
300.00122
300.00121
300.0012
300.00121
300.0012
300.00119
300.00118
300.00118
300.00118
300.00119
300.00173
300.00175
300.00175
300.00175
300.00176
300.00176
300.00175
300.00175
300.00175
300.00173
300.00173
300.00173
300.00173
300.00173
300.00173
300.00175
300.00175
300.00175
300.00176
300.00176
300.00175
300.00175
300.00175
300.00173
300.00173
300.00173
300.00173
300.00173
300.00173
300.00175
300.00174
300.00174
300.00175
300.00175
300.00174
300.00174
300.00175
300.00173
300.0012
300.00109
300.00102
300.00098
300.00098
300.00102
300.00109
300.00168
300.00173
300.00175
300.00174
300.00174
300.00175
300.00175
300.00175
300.00175
300.00175
300.00173
300.00173
300.00173
300.00173
300.00173
300.00222
300.00221
300.00223
300.00223
300.00222
300.00223
300.00223
300.00222
300.00223
300.00223
300.00221
300.00222
300.00222
300.00222
300.00222
300.00221
300.00223
300.00223
300.00222
300.00223
300.00223
300.00222
300.00223
300.00223
300.00221
300.00221
300.00222
300.00222
300.00221
300.00221
300.00222
300.00222
300.00222
300.00223
300.00223
300.00222
300.00222
300.00222
300.00221
300.00221
300.00173
300.00173
300.00173
300.00173
300.00221
300.00221
300.00222
300.00222
300.00222
300.00223
300.00223
300.00222
300.00222
300.00223
300.00221
300.00221
300.00222
300.00222
300.00263
300.00263
300.00262
300.00264
300.00264
300.00263
300.00264
300.00264
300.00263
300.00264
300.00264
300.00263
300.00263
300.00263
300.00263
300.00263
300.00263
300.00264
300.00264
300.00263
300.00264
300.00264
300.00263
300.00264
300.00264
300.00262
300.00263
300.00263
300.00263
300.00262
300.00262
300.00263
300.00263
300.00262
300.00263
300.00263
300.00262
300.00263
300.00263
300.00261
300.00262
300.00262
300.00221
300.00221
300.00262
300.00262
300.00261
300.00263
300.00263
300.00262
300.00263
300.00263
300.00263
300.00263
300.00264
300.00262
300.00263
300.00263
300.00297
300.00297
300.00297
300.00297
300.00298
300.00298
300.00298
300.00298
300.00298
300.00298
300.00299
300.00298
300.00297
300.00297
300.00298
300.00298
300.00298
300.00297
300.00298
300.00299
300.00298
300.00298
300.00298
300.00297
300.00298
300.00298
300.00297
300.00297
300.00297
300.00297
300.00297
300.00296
300.00297
300.00297
300.00296
300.00297
300.00297
300.00296
300.00297
300.00297
300.00295
300.00296
300.00296
300.00296
300.00296
300.00296
300.00297
300.00297
300.00297
300.00297
300.00297
300.00297
300.00298
300.00298
300.00296
300.00297
300.00324
300.00325
300.00325
300.00324
300.00324
300.00325
300.00326
300.00325
300.00326
300.00326
300.00325
300.00326
300.00326
300.00325
300.00325
300.00326
300.00326
300.00325
300.00325
300.00326
300.00326
300.00325
300.00326
300.00326
300.00325
300.00326
300.00326
300.00324
300.00325
300.00325
300.00325
300.00324
300.00324
300.00325
300.00325
300.00324
300.00324
300.00324
300.00324
300.00325
300.00324
300.00323
300.00323
300.00324
300.00324
300.00324
300.00323
300.00325
300.00325
300.00324
300.00325
300.00325
300.00324
300.00325
300.00325
300.00323
300.00344
300.00345
300.00345
300.00346
300.00345
300.00345
300.00346
300.00347
300.00346
300.00347
300.00347
300.00346
300.00347
300.00347
300.00346
300.00346
300.00347
300.00347
300.00346
300.00346
300.00347
300.00347
300.00346
300.00347
300.00346
300.00346
300.00347
300.00347
300.00345
300.00346
300.00346
300.00346
300.00346
300.00345
300.00346
300.00346
300.00345
300.00346
300.00345
300.00345
300.00346
300.00345
300.00344
300.00345
300.00345
300.00345
300.00345
300.00345
300.00346
300.00346
300.00345
300.00346
300.00346
300.00345
300.00346
300.00346
300.00361
300.0036
300.0036
300.00361
300.00361
300.0036
300.0036
300.00361
300.00362
300.00361
300.00362
300.00362
300.00362
300.00363
300.00362
300.00361
300.00362
300.00362
300.00362
300.00362
300.00361
300.00362
300.00363
300.00362
300.00362
300.00362
300.00361
300.00362
300.00362
300.00361
300.00362
300.00362
300.00362
300.00361
300.00361
300.00362
300.00362
300.00361
300.00361
300.00361
300.00361
300.00361
300.00361
300.0036
300.00361
300.00361
300.00361
300.00361
300.00361
300.00362
300.00362
300.00361
300.00361
300.00361
300.00361
300.00362
300.00372
300.00371
300.00369
300.0037
300.00371
300.00371
300.0037
300.0037
300.00371
300.00372
300.00371
300.00371
300.00371
300.00372
300.00373
300.00372
300.00371
300.00372
300.00373
300.00373
300.00372
300.00371
300.00372
300.00373
300.00371
300.00371
300.00371
300.00371
300.00372
300.00372
300.00371
300.00372
300.00372
300.00372
300.00372
300.00371
300.00372
300.00372
300.00371
300.00371
300.00371
300.00371
300.00371
300.00371
300.0037
300.00371
300.00372
300.00372
300.00372
300.00371
300.00372
300.00372
300.00371
300.00371
300.00371
300.00371
300.00376
300.00377
300.00376
300.00375
300.00376
300.00376
300.00376
300.00376
300.00375
300.00376
300.00377
300.00376
300.00377
300.00377
300.00377
300.00378
300.00378
300.00378
300.00378
300.00379
300.00379
300.00378
300.00377
300.00378
300.00378
300.00376
300.00377
300.00377
300.00376
300.00378
300.00378
300.00377
300.00378
300.00378
300.00378
300.00378
300.00377
300.00378
300.00378
300.00376
300.00376
300.00376
300.00376
300.00377
300.00377
300.00376
300.00377
300.00378
300.00378
300.00378
300.00377
300.00378
300.00378
300.00377
300.00377
300.00377
300.00379
300.00378
300.00379
300.0038
300.00378
300.0038
300.0038
300.0038
300.0038
300.00378
300.0038
300.00379
300.00377
300.00378
300.00378
300.00378
300.0038
300.00379
300.00379
300.0038
300.00381
300.00381
300.0038
300.00378
300.00379
300.00379
300.00377
300.00378
300.00378
300.00377
300.00379
300.00379
300.00378
300.0038
300.00381
300.00381
300.0038
300.00378
300.00379
300.00379
300.00377
300.00378
300.00378
300.00377
300.00379
300.00376
300.00375
300.00379
300.0038
300.00381
300.0038
300.00379
300.0038
300.0038
300.00378
300.00379
300.00378
300.00378
300.00379
300.00382
300.00381
300.00383
300.00384
300.00384
300.00383
300.00381
300.00382
300.00378
300.00377
300.00377
300.00378
300.00381
300.00379
300.00379
300.00382
300.00383
300.00383
300.00382
300.00379
300.00379
300.00381
300.00377
300.00377
300.00377
300.00377
300.00381
300.00379
300.00379
300.00382
300.00383
300.00383
300.00382
300.00379
300.00379
300.00381
300.00378
300.00378
300.00378
300.00379
300.00382
300.00379
300.00378
300.00381
300.00383
300.00383
300.00383
300.0038
300.0038
300.00382
300.00379
300.00381
300.00381
300.00392
300.00413
300.00447
300.00487
300.00515
300.00511
300.00478
300.00441
300.00411
300.00391
300.00381
300.00381
300.00392
300.00412
300.00459
300.00544
300.00641
300.00713
300.00718
300.00651
300.0055
300.00461
300.00412
300.00392
300.00382
300.00381
300.00377
300.00377
300.00379
300.00381
300.00375
300.00381
300.0038
300.00389
300.00382
300.00375
300.00381
300.00377
300.00377
300.0038
300.00379
300.00389
300.00392
300.00401
300.00418
300.00429
300.00425
300.00409
300.00398
300.00391
300.00381
300.00381
300.00377
300.00376
300.00378
300.00374
300.00379
300.00381
300.0038
300.00388
300.00395
300.00383
300.00373
300.0038
300.00379
300.00382
300.00376
300.00377
300.00378
300.00377
300.00383
300.00389
300.00379
300.00384
300.00388
300.00383
300.00388
300.00396
300.00396
300.00393
300.00384
300.00385
300.0038
300.00383
300.00386
300.00377
300.00384
300.00379
300.00381
300.0039
300.00388
300.00384
300.00394
300.00387
300.00382
300.00387
300.00382
300.00375
300.00364
300.00367
300.00364
300.00375
300.0038
300.0039
300.00379
300.00367
300.0037
300.00366
300.00376
300.0038
300.00368
300.0037
300.00383
300.00391
300.00395
300.00427
300.00415
300.00398
300.00444
300.00409
300.00402
300.00432
300.00479
300.00408
300.0042
300.0052
300.00529
300.00494
300.00739
300.00576
300.00462
300.00409
300.00389
300.00387
300.00402
300.00432
300.00393
300.00382
300.00388
300.00378
300.00381
300.00381
300.00381
300.0038
300.00378
300.00387
300.0039
300.00393
300.00393
300.0039
300.00386
300.00389
300.00419
300.00408
300.00411
300.00408
300.00474
300.00637
300.00975
300.01042
300.01064
300.01066
300.01045
300.0098
300.00901
300.00782
300.00686
300.00686
300.00784
300.00905
300.00984
300.01049
300.01071
300.01071
300.0105
300.00986
300.00907
300.00788
300.00692
300.00692
300.00556
300.00449
300.00402
300.00384
300.00384
300.00393
300.00397
300.00397
300.00393
300.00383
300.00384
300.00401
300.00446
300.00548
300.00677
300.00677
300.00773
300.00893
300.00971
300.01035
300.01056
300.01056
300.01036
300.00977
300.00899
300.0078
300.00682
300.00681
300.00778
300.00897
300.0104
300.0103
300.00875
300.00424
299.99873
299.99487
299.99493
299.99889
300.00443
300.00887
300.01035
300.01039
300.00896
300.00652
300.00488
300.00418
300.00432
300.00521
300.00725
300.01042
300.00976
300.01093
300.0098
300.00458
299.99953
299.99373
299.98901
299.98385
299.98059
299.97842
299.97839
299.98047
299.98365
299.98875
299.99342
299.99924
300.0043
299.99344
299.98635
299.97949
299.97321
299.96859
299.96603
299.96608
299.96873
299.97344
299.9798
299.98672
299.99382
299.9892
299.99926
300.00804
300.01151
300.01147
300.01065
300.01067
300.00727
300.00522
300.00433
300.00419
300.00492
300.00659
300.00985
300.01047
300.01155
300.01147
300.00703
300.00704
299.99546
299.98092
299.98413
299.9736
299.97989
299.97128
299.96367
299.9578
299.95457
299.95452
299.95764
299.96342
299.97093
299.97945
299.98874
299.99883
299.98359
299.97311
299.96334
299.95455
299.94773
299.944
299.94406
299.9479
299.95483
299.96373
299.95787
299.96892
299.96629
299.97878
299.97875
299.99543
299.98082
299.96879
299.96623
299.95459
299.95464
299.94406
299.94791
299.94008
299.93572
299.93566
299.93991
299.94762
299.95746
299.96839
299.98034
299.99494
299.97819
299.96574
299.95423
299.94376
299.93553
299.93097
299.93103
299.93571
299.93563
299.94399
299.94771
299.9577
299.9635
299.97342
299.984
299.99922
300.00806
300.00989
300.01101
300.0105
300.00907
300.00788
300.00921
300.01031
300.01047
300.00902
300.00464
299.99379
299.98909
299.97972
299.97106
299.96342
299.95456
299.94761
299.93986
299.9355
299.93095
299.93089
299.93546
299.94371
299.95418
299.96571
299.97817
299.99495
299.98031
299.96831
299.95734
299.94746
299.93971
299.93545
299.94372
299.94376
299.95431
299.95753
299.96859
299.9733
299.97968
299.98664
299.99377
299.99958
300.00463
299.99918
299.98904
299.98389
299.98064
299.9785
299.96595
299.96592
299.95427
299.95742
299.94748
299.95435
299.96318
299.97301
299.98355
299.99888
299.98874
299.97939
299.9708
299.96324
299.97316
299.96851
299.98059
299.97848
299.9953
299.99532
300.00703
300.00807
300.0099
300.01048
300.01051
300.00921
300.00805
300.00802
300.00935
300.01121
300.01176
300.01256
300.01249
300.01248
300.01251
300.01165
300.01108
300.00918
300.00775
300.00908
300.00792
300.00906
300.01034
300.01083
300.01133
300.01123
300.01122
300.01131
300.01083
300.01037
300.00911
300.00798
300.00912
300.01017
300.01028
300.0096
300.00767
300.00659
300.00662
300.00775
300.00965
300.0103
300.01016
300.01023
300.00915
300.011
300.01153
300.01232
300.01225
300.01223
300.01229
300.01154
300.01102
300.00919
300.00789
300.00821
300.0092
300.01025
300.01083
300.01138
300.01046
300.00886
300.0118
300.00803
299.99681
300.00079
300.0059
300.01
300.01085
300.01107
300.01141
300.01164
300.01092
300.00969
300.00785
300.01151
300.01148
300.0068
300.00682
300.01149
300.01156
300.00791
300.00981
300.00445
299.99941
299.99359
299.9889
299.98378
299.99912
300.00455
300.00896
300.01043
300.01047
300.011
300.01173
300.01256
300.01251
300.01248
300.0125
300.01196
300.009
300.01054
300.00597
299.99997
300.00119
299.99894
299.99548
299.99438
299.98715
299.99439
299.99549
299.98861
299.9811
299.99032
299.98948
299.98449
299.98511
299.98625
299.97484
299.97356
299.97999
299.97125
299.97995
299.98948
300.0009
299.99031
299.98623
299.98106
299.97474
299.98505
299.98445
299.97345
299.96852
299.98103
299.9969
300.0082
300.00822
300.01199
300.00905
300.01064
300.01153
300.01116
300.01097
300.01016
300.00607
300.00092
299.9969
299.97885
299.97887
299.97919
299.98142
299.97722
299.96945
299.96681
299.96579
299.95369
299.95711
299.96329
299.96354
299.97228
299.96364
299.96336
299.95393
299.9535
299.94579
299.95744
299.96967
299.98155
299.98114
299.97905
299.9794
299.9774
299.96712
299.96609
299.96873
299.9573
299.954
299.95385
299.94152
299.94266
299.94664
299.93823
299.94653
299.94566
299.95723
299.95352
299.94126
299.94241
299.93351
299.93167
299.93675
299.93181
299.93364
299.92859
299.92633
299.92421
299.93015
299.94063
299.95378
299.95761
299.96407
299.97326
299.97447
299.96453
299.95348
299.96444
299.96397
299.95339
299.94519
299.94475
299.95793
299.95369
299.93985
299.9394
299.95492
299.97996
300.00198
300.00574
300.00969
300.01232
300.01082
300.00759
300.00306
299.99926
299.99932
300.01182
300.00806
300.00892
300.01049
300.01133
300.01083
300.01007
300.00605
300.00094
299.99687
299.97909
299.97944
299.97748
299.98167
299.98126
299.96887
299.96614
299.96717
299.9698
299.97505
299.98529
299.98468
299.98971
299.99054
299.98647
299.98136
299.98027
299.97378
299.96361
299.95745
299.95405
299.9539
299.95759
299.94595
299.94158
299.94272
299.94681
299.95419
299.95375
299.96386
299.97257
299.97156
299.96363
299.96386
299.95757
299.94592
299.93692
299.93187
299.9337
299.9384
299.93368
299.92865
299.92639
299.93184
299.94152
299.94269
299.9468
299.95747
299.95406
299.95385
299.96722
299.96986
299.97512
299.9814
299.9889
299.99571
299.99464
300.00022
300.00614
300.00141
299.99915
299.99577
299.99472
299.98747
299.98033
299.98986
300.00115
299.99064
299.98653
299.98543
299.98488
299.97388
299.96898
299.9815
299.99719
299.98183
299.97756
299.97959
299.97934
299.96625
299.96619
299.95399
299.94261
299.93359
299.92856
299.9285
299.93343
299.94235
299.95364
299.96576
299.96678
299.97917
299.97716
299.98135
299.98098
299.96843
299.96935
299.97458
299.98496
299.98438
299.97332
299.97984
299.98944
299.99024
299.98609
299.98091
299.97205
299.96332
299.95707
299.95346
299.94119
299.94546
299.94635
299.95696
299.96309
299.95368
299.95322
299.96333
299.96311
299.97105
299.97989
299.97947
299.98638
299.99352
299.99442
299.99548
299.99894
299.98853
299.9871
299.99446
300.0061
300.00007
300.00125
299.9955
299.9903
299.98095
299.9861
299.97463
299.97342
299.98453
300.001
299.98953
299.98505
299.98145
299.96941
299.95708
299.94545
299.93651
299.93158
299.92624
299.93155
299.9334
299.938
299.94635
299.94233
299.94114
299.95344
299.95366
299.957
299.96854
299.96587
299.96682
299.97716
299.97926
299.99703
299.98115
299.97903
299.97905
299.96589
299.9537
299.94237
299.93346
299.93159
299.92629
299.93174
299.93664
299.93815
299.94658
299.94567
299.94143
299.95378
299.95735
299.95728
299.96335
299.95387
299.94647
299.94555
299.94118
299.95347
299.95716
299.9571
299.96328
299.96347
299.95339
299.96355
299.97222
299.97126
299.9801
299.97365
299.96881
299.96969
299.96715
299.97745
299.97955
299.99716
299.9793
299.98138
299.98169
299.98524
299.97485
299.98627
299.98112
299.99044
300.00108
299.98472
299.9897
299.99461
299.9873
299.98005
299.97353
299.96861
299.96947
299.96684
299.97719
299.97927
299.99704
299.98119
299.98149
299.98511
299.97473
299.98618
299.98108
299.99039
300.00103
299.9846
299.98965
299.99459
300.00614
299.9956
299.98868
299.99902
299.99562
300.00615
300.00019
300.00134
300.01019
300.01099
300.00779
300.00325
299.99948
299.99953
300.00333
300.00778
300.01087
300.00771
300.00319
300.00587
300.00203
299.98004
299.98956
299.99292
300.00809
300.01392
300.00834
300.00518
300.00418
300.00389
300.00393
300.00423
300.00409
300.00406
300.00384
300.00382
300.00393
300.00386
300.00401
300.00429
300.00475
300.00487
300.00525
300.00844
300.00848
300.00837
300.00712
300.00551
300.00443
300.00551
300.00574
300.00546
300.00442
300.00399
300.00397
300.00442
300.00488
300.0048
300.00521
300.0052
300.00497
300.007
300.00701
300.00497
300.00414
300.00414
300.00419
300.0042
300.0042
300.0039
300.00386
300.00409
300.00411
300.00408
300.00475
300.0064
300.00548
300.00443
300.00399
300.00392
300.00413
300.00464
300.00554
300.00658
300.00729
300.0073
300.0066
300.00556
300.00466
300.00414
300.00392
300.00381
300.0038
300.00392
300.00414
300.00449
300.00492
300.00524
300.00524
300.00491
300.00449
300.00414
300.00392
300.00381
300.00381
300.00376
300.00377
300.00379
300.00381
300.00381
300.00375
300.00379
300.00382
300.00387
300.00394
300.00382
300.00377
300.0038
300.00383
300.00383
300.0038
300.00376
300.00365
300.00349
300.00327
300.00325
300.00327
300.00326
300.00348
300.00349
300.00348
300.00326
300.00325
300.00321
300.00327
300.0035
300.0035
300.00349
300.00327
300.00328
300.00351
300.00353
300.00329
300.00324
300.00323
300.00325
300.0032
300.00355
300.00349
300.00372
300.00386
300.00413
300.00384
300.00395
300.00376
300.00383
300.00406
300.00497
300.00456
300.00421
300.00456
300.00405
300.00356
300.00352
300.00375
300.00329
300.00348
300.00531
300.00426
300.0034
300.00316
300.00322
300.00349
300.0035
300.00367
300.00379
300.0039
300.00372
300.00388
300.0037
300.00384
300.00414
300.0046
300.00397
300.00377
300.00368
300.00371
300.00354
300.00352
300.00329
300.0033
300.00327
300.00325
300.00353
300.0035
300.00356
300.00321
300.00332
300.00379
300.00426
300.00465
300.00386
300.00408
300.00505
300.00838
300.00686
300.00517
300.0042
300.00389
300.00464
300.00515
300.00809
300.00855
300.01244
300.01392
300.00798
300.01143
300.01314
300.01251
300.00714
300.00734
300.00844
300.00845
300.01412
300.00808
300.01148
300.00976
300.00767
300.00318
300.00586
299.9893
300.00162
300.00453
300.00762
300.01371
300.01473
300.01378
300.0108
299.99612
299.99267
299.98315
300.00473
300.00209
299.99937
299.99937
300.00209
299.97971
299.97976
299.95898
299.9661
299.97631
299.98937
299.99272
299.99615
300.01069
300.00761
300.00465
299.98338
299.9868
299.96314
299.97116
299.98244
299.98031
299.9792
299.97723
299.96659
299.9662
299.95397
299.95437
299.96648
299.95911
299.94437
299.94447
299.94461
299.95772
299.9574
299.94506
299.94035
299.95344
299.95334
299.93955
299.93909
299.95455
299.95426
299.93862
299.9256
299.93251
299.94452
299.95934
299.95919
299.94461
299.93333
299.93432
299.93548
299.93
299.92839
299.92208
299.92855
299.92711
299.9258
299.93895
299.95466
299.95619
299.96087
299.96843
299.96907
299.95583
299.96897