/*--------------------------------*- C++ -*----------------------------------*\
  =========                 |
  \\      /  F ield         | OpenFOAM: The Open Source CFD Toolbox
   \\    /   O peration     | Website:  https://openfoam.org
    \\  /    A nd           | Version:  7
     \\/     M anipulation  |
\*---------------------------------------------------------------------------*/
FoamFile
{
    version     2.0;
    format      ascii;
    class       volScalarField;
    location    "460";
    object      k;
}
// * * * * * * * * * * * * * * * * * * * * * * * * * * * * * * * * * * * * * //

dimensions      [0 2 -2 0 0 0 0];

internalField   nonuniform List<scalar> 
25278
(
1046.9285
987.10134
989.81806
989.81647
934.12908
987.09889
1045.2597
1046.926
1045.2653
1028.7324
1031.7812
1034.3653
1007.596
977.85186
891.5785
989.52475
986.99535
919.2104
903.79799
944.36729
964.20681
969.34519
973.68324
1003.6332
994.39079
1003.6321
973.68316
964.73554
955.01496
970.38373
964.76342
949.4395
932.98789
943.93753
958.42524
952.83871
961.10915
957.17142
949.04497
938.46544
944.32024
952.50647
947.01359
955.00312
965.12715
980.15284
999.89285
995.10746
975.63291
959.92451
956.69696
941.26328
917.95148
923.88014
945.50993
953.76518
950.51553
942.27182
928.62994
933.32788
941.7793
937.3618
934.10441
948.34784
939.99607
938.69763
947.02041
932.35736
923.52139
925.35787
908.44968
913.31413
919.8707
927.0842
935.1898
944.5887
958.43252
970.38844
969.34852
943.16577
916.07181
891.64409
919.25165
904.01447
937.26217
910.30988
873.99138
836.80984
855.05755
873.66527
887.11124
867.70528
854.89601
818.89849
833.72102
867.85818
882.99906
901.10473
914.86656
895.42975
882.87211
849.39413
864.82927
895.54264
877.57496
865.54919
849.859
791.29795
775.19613
733.21966
822.31286
834.71828
748.49992
765.34388
808.29003
825.29112
782.61596
863.22075
851.71737
851.72554
903.99798
937.21648
934.03522
854.76111
818.83587
775.21649
733.16357
822.31282
873.97473
910.26801
915.94689
943.02332
919.14318
891.54462
855.03852
836.83825
849.9143
834.72695
748.43387
791.3937
808.46127
765.26441
782.50765
863.2403
877.68587
865.62973
883.03062
867.87231
833.74075
867.62823
891.36397
873.55899
887.02754
901.02249
918.99629
914.80112
895.60204
865.01186
825.53166
737.57989
593.45799
593.6279
737.08398
824.16988
877.11265
865.06927
850.65814
862.15312
778.04769
761.02616
807.15783
716.6101
570.29371
581.40141
357.13474
341.5505
581.40623
581.29669
346.30706
362.03419
581.9413
570.00166
716.84331
806.91613
849.50053
882.83658
895.45934
877.1272
824.14333
775.89943
758.76797
850.09638
903.57071
864.95887
861.75468
879.79063
795.56932
597.47974
386.88764
382.08878
595.76903
797.52379
879.94557
893.25629
911.09955
929.62057
943.95102
955.02505
949.46342
964.77832
952.85985
933.03875
944.34847
952.52685
961.12538
957.19982
949.08248
938.52142
947.0547
955.03341
960.57799
974.40968
985.16429
999.89211
1001.001
989.73609
984.37065
995.74385
980.16138
968.79917
976.76855
968.64379
963.11772
972.89728
965.14892
961.80565
975.6492
995.11014
964.22269
944.42202
959.95418
945.5672
924.01433
933.42272
941.85063
953.80903
950.57818
942.35496
928.77936
937.47418
934.25804
948.42707
956.74592
941.34509
918.18463
940.10267
925.55764
923.75371
938.82417
947.11831
932.5426
940.64001
942.33517
945.50585
949.82551
958.05107
969.62209
966.48825
958.73464
956.61592
972.70987
988.34204
991.35508
977.58473
980.83911
988.72234
992.49235
984.58899
976.58025
971.1679
979.13734
974.1322
985.50978
982.4268
974.57257
961.88406
966.1201
957.08134
960.06985
963.31819
967.89675
976.9749
989.73501
1001.0009
985.16237
974.40627
968.78718
976.75952
972.88228
963.09581
968.63288
960.56321
951.55875
960.76197
959.9434
955.22342
951.19052
946.89868
935.42171
943.57994
931.72334
923.6616
912.77916
921.77109
906.13129
920.3722
931.74944
943.6028
935.22547
911.18094
923.69417
912.8902
927.16578
935.483
921.85722
906.2263
897.30166
911.96139
881.30528
897.18172
877.86122
887.96462
905.28848
912.97918
921.01131
927.90255
934.94507
941.06822
945.32682
941.34527
947.78853
943.53609
936.856
930.04919
934.37962
939.29932
940.27501
948.2283
943.34335
949.46606
953.51997
959.33176
955.9599
951.94838
945.54319
949.57514
942.66421
947.517
940.51661
936.44488
932.23866
926.83608
922.17683
914.24152
918.6984
925.41272
928.54742
940.29258
951.57909
959.9576
948.2398
943.375
949.49462
955.24939
951.22002
946.93569
941.11026
945.3643
941.39911
947.83164
943.58853
936.92129
930.12847
934.99673
939.34015
932.28016
927.95885
922.27085
926.91554
934.44642
938.63385
945.58898
951.98432
955.99149
959.35354
953.54451
949.61161
942.70964
947.54376
940.54547
936.48182
931.15204
935.24093
939.3434
944.74103
956.81177
964.52656
976.09048
971.3623
967.38477
961.6096
957.62441
953.69538
957.67707
964.02912
968.11017
972.12991
975.47923
969.73252
965.67778
961.76888
965.80956
958.96289
963.79227
959.62504
955.68286
951.59003
946.78946
950.81029
943.36838
948.70841
952.79194
956.84668
951.5434
947.46125
954.88326
950.43039
958.03724
965.13695
961.07972
953.95947
949.95289
945.88498
953.03135
948.97961
944.81756
940.50893
928.27109
920.03443
893.63876
902.86296
911.61676
902.52785
922.11763
913.58955
893.09041
868.22342
882.89012
843.40615
857.27319
867.35429
891.66754
877.75934
845.10779
833.08796
807.16151
855.02122
885.62221
908.8476
880.82529
906.21803
914.95885
917.4746
895.27733
891.03387
880.96958
845.57066
802.22965
777.45147
791.57284
819.93953
865.11633
856.04601
877.44775
880.72465
885.1657
890.14027
895.88062
901.7066
908.12064
914.35286
921.06664
925.45533
917.33145
913.02406
905.17651
910.00074
918.79162
923.07668
929.68604
937.07235
929.6504
933.79146
927.13167
935.18892
931.08858
938.58412
934.07399
941.76508
948.92979
958.01328
969.60001
961.77627
958.68544
966.45389
953.72237
945.423
949.7739
940.43609
928.14636
921.90005
902.07419
911.39522
902.59474
892.53477
884.7282
894.5308
917.15965
914.58001
905.75415
879.85473
890.09994
853.30919
863.18711
876.8036
891.29994
882.4605
842.33807
867.1497
831.14721
856.78791
866.90382
843.33397
815.05691
802.30448
852.93468
842.71056
768.30792
782.06761
823.92826
853.48094
875.77247
891.93871
905.92421
917.03823
927.27093
940.49835
955.28875
972.68154
988.32999
991.34847
995.74131
984.36531
992.4887
988.71649
980.82941
971.15282
976.57205
984.58418
979.12817
974.11577
985.50038
977.57026
974.54798
982.41279
969.88229
961.84538
966.09384
957.04747
960.04555
963.30089
967.88861
976.08408
971.35122
967.37072
964.00783
957.6515
961.59493
957.604
953.66654
946.75103
951.56695
956.80347
964.52306
959.61046
965.66452
969.7225
975.47084
972.1178
968.09545
961.74951
965.79468
958.94593
963.78231
956.83605
952.77891
948.69
955.66766
950.78045
943.33259
939.30273
944.71916
937.90459
945.30374
953.44374
946.03938
941.96717
935.30665
931.25755
922.57329
930.08386
925.73342
921.80922
917.29971
909.90543
905.06681
895.85714
900.50538
909.76406
900.58102
895.94977
885.24156
890.39396
894.85889
904.91853
914.27632
923.00566
916.61667
925.73187
921.45558
929.84035
937.54799
944.76013
941.60196
937.27689
929.33169
933.11495
925.59428
921.11271
925.53447
933.95278
938.20805
945.86038
949.87625
952.99145
945.82999
942.28776
939.02903
947.29516
943.24156
938.98016
934.60573
932.03988
936.41808
927.67566
930.63819
926.08315
922.96799
913.38579
917.15799
921.51774
917.90236
906.86648
911.37014
916.27181
911.40544
916.88445
907.92036
912.28014
906.00708
901.36854
889.43406
897.53708
902.26858
894.631
899.13631
910.42078
920.60115
929.81167
933.94669
938.19038
929.87535
924.78287
920.00442
930.01535
925.84476
934.93038
932.00566
940.75048
944.77051
936.1286
926.48695
922.27871
911.35487
915.7742
904.47209
899.94866
895.34825
906.56941
901.78245
897.81562
910.28854
920.4912
930.0443
942.22085
956.55594
964.36365
963.06172
948.86928
950.56921
958.71231
972.44946
980.34796
979.06596
971.20718
957.03109
965.08379
966.76512
955.1302
957.04607
959.50107
962.084
965.11464
961.05212
957.95724
954.00677
946.37937
949.90803
953.92161
950.39946
954.49523
958.00915
962.07369
969.17344
966.08618
958.55935
955.3289
963.52801
961.02344
952.46059
948.39842
951.26562
947.16417
955.39281
951.41298
948.94869
952.88521
944.28913
940.25532
943.13694
934.12447
938.03767
942.26433
946.31531
942.10244
932.99323
938.04355
933.97295
928.90325
924.16386
928.28751
938.20776
934.72846
930.63119
919.87668
915.66458
911.88693
923.47827
933.68169
942.85354
938.80338
934.46524
932.77477
928.35297
918.39635
923.1879
925.17097
929.53513
927.58803
937.16623
941.19636
931.75863
930.43511
940.16811
936.11888
931.72416
931.12592
926.67631
916.29602
921.11942
921.82317
926.24937
925.55858
935.54183
939.58419
929.75802
918.58596
919.43785
921.09369
916.78834
919.22181
914.78521
912.29871
907.68273
894.31544
899.65424
902.90909
907.49689
904.34604
908.83383
906.66869
902.10235
915.09506
910.55364
909.65961
904.99041
890.63086
896.11339
897.32493
881.10622
884.5189
889.01109
894.23929
889.34673
873.91913
881.90404
887.05577
879.62252
884.51197
898.90185
903.35224
908.8053
914.66254
920.8045
910.89763
918.42514
909.12255
918.27333
925.75386
933.82199
927.19587
918.48672
914.35635
921.83974
914.14533
904.98409
909.17796
899.13064
903.31056
913.2842
922.43324
930.10157
937.92991
941.98228
933.93336
926.67059
935.34964
931.3094
922.6322
913.3273
917.40816
926.47409
933.92217
926.62986
930.76635
939.42077
947.43339
954.86076
950.39433
954.4961
950.2915
946.18975
937.0963
942.13493
946.24846
951.52526
943.52165
950.15715
942.12661
938.24298
930.61301
938.25045
946.05394
950.16603
942.13384
934.88269
943.54506
939.45245
930.80086
921.52954
925.64085
934.69855
925.62323
934.8633
927.43624
937.25248
933.12601
929.01874
924.9254
918.82418
922.95405
911.85714
919.17496
915.05896
907.68368
903.45915
896.1834
891.72972
877.276
886.6344
895.83778
906.67611
891.34673
886.83741
877.04823
882.00353
868.05454
879.51712
874.54333
862.39157
850.21623
867.45422
872.40297
862.52496
857.00809
835.93557
842.58283
855.8644
860.95399
872.83945
884.10406
888.47564
900.13413
891.05491
877.38272
865.78678
881.91124
872.67168
889.17869
893.70908
907.69489
913.03893
917.22232
911.96578
924.04503
928.19086
938.83604
942.30054
946.40692
942.94663
932.34021
936.5373
941.22015
931.22129
927.08257
916.02206
923.30347
912.63068
921.50872
917.37685
907.44349
911.57311
915.71184
905.28115
916.78787
908.02161
920.19093
913.26563
925.55345
921.38848
932.41077
916.19847
920.40784
906.85158
902.53039
909.04892
904.80764
900.53102
886.40266
895.36251
904.33393
908.48762
899.60664
886.11862
896.93691
892.74011
881.79584
870.46606
875.04011
890.81488
882.1687
898.1571
892.01952
907.34393
920.40294
931.78294
941.87145
950.98268
947.02583
945.41096
949.33857
939.9784
935.92499
937.82743
927.65786
925.31041
929.46752
917.50125
913.20765
916.18136
902.95044
898.46757
893.85359
889.53952
894.32864
876.44417
882.54559
877.60799
872.43635
866.63201
884.06376
879.29471
859.29052
865.71046
871.19595
865.83829
886.30045
891.24938
889.60721
905.55063
900.94096
914.22551
914.22934
925.5566
935.53393
948.85232
963.04515
972.64823
995.04581
964.14723
919.05529
903.78436
882.83184
900.92763
882.82674
865.20694
850.8451
862.35491
877.23243
824.92544
779.68305
762.50861
807.96926
849.49127
864.85942
895.36037
914.67051
918.96452
895.34959
877.35173
825.32982
739.06637
588.65831
576.66724
718.68048
585.05476
356.51921
373.93771
597.2603
782.43245
765.40436
808.47606
865.36687
903.71149
851.48788
864.82337
806.54627
716.15393
582.25335
348.56943
363.80595
594.10411
736.87802
576.91437
565.78767
757.85969
774.8964
823.78356
877.00459
903.5129
849.9715
861.62573
879.68426
794.49694
591.68456
387.77909
401.03048
603.83589
799.27451
880.10575
917.94729
941.23669
956.6677
959.83111
944.28643
923.8151
942.19824
939.95395
938.68639
947.00615
948.29941
934.066
932.34836
923.51702
925.33294
928.57373
937.29009
950.43879
953.65295
945.40679
933.22953
941.67017
949.6535
961.66054
975.53849
991.24898
988.29703
971.18847
979.04864
980.2943
972.39681
964.312
956.50543
955.27351
940.48615
942.17242
950.51574
958.65677
957.01319
965.06498
966.7083
969.79029
982.32659
974.46246
966.37014
958.60406
945.34065
953.63501
957.8915
969.48126
977.44987
985.37838
973.99041
965.96872
961.75562
948.86476
946.95984
945.36511
944.35191
943.80353
943.81303
944.38096
948.31963
947.74221
938.01421
938.68289
934.61807
933.9477
922.85498
923.68929
927.86966
927.05176
914.42111
915.47178
911.1157
910.0348
894.5001
896.05457
898.98086
903.52898
886.54665
881.56074
887.34304
868.45159
877.48038
858.53878
853.40898
848.1243
867.72875
857.81014
852.17036
846.46991
834.94857
841.24892
808.66925
827.37892
820.58918
800.53324
777.46843
785.14507
830.37354
860.08248
856.80288
879.29514
873.85739
849.92121
816.41086
822.83852
762.86987
755.10996
653.80405
712.07072
759.18685
791.18074
813.20651
831.84326
847.28765
861.96026
874.73429
887.08666
897.77545
902.4729
912.44928
921.59003
929.94161
937.62606
933.20865
929.46604
937.37508
941.68511
934.06308
938.30072
941.83434
934.16226
938.26
929.96841
925.84659
920.7789
929.94094
925.69186
921.29819
925.72043
917.0461
911.65858
916.48732
911.68534
921.73608
930.78801
939.08529
934.73374
926.26278
923.19608
932.20196
936.55358
927.8722
932.169
935.05462
943.32869
945.93
949.93302
942.36561
934.05475
924.93307
920.23062
930.16666
939.13533
947.36764
953.78446
950.651
964.40878
963.1183
955.36581
955.35464
972.68233
995.04901
986.99171
989.51809
1046.5906
1045.1394
977.47877
973.41526
969.19257
964.1661
941.32445
956.72392
938.81711
918.18184
923.75707
932.54406
947.11332
948.40621
940.08668
925.56141
934.26045
937.46815
950.54063
959.88332
944.3652
923.99972
942.3237
928.78539
933.40953
945.51546
953.74435
941.8264
949.78225
945.48661
942.32891
940.6402
948.96869
948.97505
957.10444
958.77053
972.48027
980.36697
966.79952
969.90778
959.5369
962.11452
957.99472
954.05347
946.44283
950.44979
954.53489
958.58718
962.09651
969.18976
966.1086
963.55323
955.36757
951.31623
947.23171
955.44053
951.47275
943.22039
940.36353
949.02626
944.86604
940.86492
938.93666
934.62552
930.23536
920.77344
925.40951
923.46902
932.96415
928.57216
918.73018
908.19132
910.71877
913.72888
917.41649
906.94061
902.30595
907.31645
918.1945
922.52168
926.0306
916.04345
911.73996
915.98606
926.6943
936.26761
933.84921
942.96643
941.33061
937.32622
927.82877
929.73973
919.53423
915.15709
903.50541
898.5107
895.17184
900.39833
912.74357
917.16885
921.41422
923.7448
912.32685
908.01425
904.99471
909.38887
907.30636
919.80388
930.66407
931.96339
936.08883
937.96488
947.11795
951.05297
952.9456
944.37693
948.46457
957.09459
961.0576
952.50969
943.02006
946.46122
950.33093
954.52476
946.28166
942.18123
938.10343
946.36539
942.32303
934.04917
929.02157
938.12446
942.17164
933.0913
937.16858
946.24458
942.37626
938.30541
934.25037
924.34896
928.43344
924.25559
934.86539
930.79937
920.14665
908.1338
913.32271
918.99893
925.02415
920.92583
916.76493
906.84506
911.0472
903.74603
914.87825
910.67276
906.30379
895.0236
889.89369
877.60025
882.49136
891.56864
879.69348
868.59246
862.98619
851.47303
868.47913
882.66585
887.73433
900.41678
894.94382
880.72741
875.16321
858.80235
864.18753
873.34444
857.04306
844.8871
838.40397
824.91657
849.37308
868.46351
874.11461
890.00974
885.82439
868.08697
861.87716
839.41885
845.60503
854.94661
831.62097
816.23191
808.16974
789.45071
830.02322
856.66862
863.05124
882.64057
898.16734
911.05093
922.13605
931.92982
927.51533
917.40789
916.68022
926.93281
931.34956
921.45178
925.84526
926.51974
936.29474
940.31783
939.74871
935.73535
935.73273
931.35213
926.93402
914.96856
906.23001
880.84652
880.96884
891.03908
895.33145
917.50181
908.88333
885.68779
855.04929
845.49874
802.0775
776.8597
790.83783
855.95251
865.12645
819.64697
806.99884
833.44643
868.45081
893.21753
913.63954
893.7416
920.08064
928.30488
922.15981
902.65105
911.7598
903.02428
883.19776
843.72884
857.81792
867.92958
845.47711
877.9873
891.98324
901.94563
896.0929
890.29264
885.23885
880.72149
877.40398
875.53218
875.56255
891.62204
892.91284
906.50115
905.58234
910.17963
896.98237
901.70227
902.84596
915.52509
914.67474
918.97615
930.00598
934.15447
934.80815
944.50601
945.52443
949.42853
940.11458
941.98388
946.0711
955.18992
959.16661
950.11406
948.24576
957.53903
953.59779
944.2118
933.78128
936.04292
938.94215
928.35524
932.518
936.61539
941.27104
931.29246
937.2939
933.18385
929.09708
919.26907
915.18052
907.92314
912.05047
923.09279
927.18537
916.16611
923.37232
927.48782
920.29128
908.16074
916.84456
912.71549
908.59619
904.47034
900.2978
896.03188
884.25928
888.61223
877.80422
891.4337
887.07145
899.48347
892.32267
904.87946
909.15203
896.7023
890.04157
903.8867
899.51813
885.50447
869.24796
878.1271
882.65723
866.76155
862.04011
873.32366
858.10198
871.50642
866.76545
852.74679
836.0416
853.16756
847.75285
837.41563
826.76504
759.66386
786.48995
799.56157
744.16706
801.61327
788.71094
726.95753
636.6954
727.91769
741.43836
625.71772
621.90329
459.45635
463.97556
654.02025
538.98652
660.03884
749.77993
736.105
608.98498
642.71093
479.81775
643.50058
648.87751
485.02685
392.9627
379.87076
524.68286
373.73307
388.81115
433.71553
381.30602
394.27344
392.39686
469.17119
629.88184
771.072
843.2975
879.99125
905.77555
914.59093
917.1617
908.48593
884.96405
894.70576
890.21219
853.92564
864.01875
853.80626
805.16785
818.04489
785.28075
817.7138
850.40188
874.0348
890.69961
905.01083
916.30215
926.67186
931.1235
931.70301
927.26071
917.04739
921.81893
921.12457
909.67835
910.59048
905.98338
892.11516
897.46398
896.17226
900.98552
905.58513
918.59323
929.75245
939.57971
940.14285
936.09721
926.23659
930.41803
931.72381
941.15754
937.1276
932.74504
928.32763
930.00438
934.41482
925.14064
923.17994
918.40258
920.48212
910.33324
907.74378
912.33806
914.80715
903.03876
899.82161
894.5238
897.99519
901.89138
913.40188
922.93346
931.98453
921.86429
913.30612
893.31731
919.80115
928.05449
911.35602
902.16141
892.67348
902.59588
882.60913
867.6528
843.02342
832.50519
844.5549
877.23772
891.38902
867.19093
857.17017
877.84524
897.12549
912.6826
926.96036
938.33147
948.90648
964.61136
969.18295
999.7149
979.99405
995.57808
1000.7741
994.07741
984.94086
970.17192
964.44165
954.81134
949.29645
932.84839
952.6678
958.20569
960.93308
957.02878
946.86829
952.32515
944.14671
935.01569
944.35838
943.39314
935.28193
921.64759
931.54452
923.49503
910.99085
929.40432
943.72468
910.95743
881.26657
911.79621
920.18832
906.03954
887.88787
906.02816
897.12881
912.65972
923.47842
931.52319
943.34353
934.97497
926.90131
935.21365
921.6163
927.72061
940.05866
960.52003
951.3682
946.73757
954.85163
964.97979
972.73181
976.57626
974.17536
968.60686
960.37486
968.44188
962.94017
970.99405
980.67655
988.56208
992.29989
989.4998
984.17963
976.37746
984.38852
978.96802
967.93902
964.97665
961.96339
959.39573
956.95864
955.06083
953.47457
952.46789
951.92449
951.9354
952.50037
953.52643
957.48602
959.12587
950.05097
945.98801
944.10368
948.16884
946.87948
956.47108
955.89248
946.2193
942.15248
942.81487
932.03136
933.6119
935.907
940.02583
937.74315
925.96387
928.77253
924.59813
921.75186
919.76908
924.0271
936.17779
935.3765
931.22667
918.75233
923.04237
908.54034
909.84089
912.38616
915.9612
911.67752
907.99453
891.42134
896.60767
901.10392
896.1877
892.25132
887.19542
905.33357
900.74499
899.26929
879.47851
882.06441
876.79678
871.38787
868.44719
862.72834
884.5739
884.72809
879.46788
881.51751
876.21794
854.62414
861.17678
857.30117
863.22351
868.93995
889.75446
891.57742
906.75872
919.44718
915.11795
902.2203
904.47294
916.80736
927.5695
929.49118
938.74811
942.79334
933.62941
923.45382
921.09414
908.92497
911.94542
907.59128
919.2219
922.242
931.94457
940.67693
936.35416
938.8911
934.52845
926.02006
930.56261
927.63251
917.89415
921.47029
917.13357
906.60427
911.37658
906.94337
911.39305
915.66707
926.43817
936.0564
944.69477
947.19492
943.14918
934.84261
938.93641
942.17534
949.7629
945.74883
941.49811
937.1776
940.31578
944.63032
937.42218
933.85453
929.24767
932.9998
925.49141
921.04908
925.45364
929.72652
921.35574
916.22259
911.38257
916.80536
907.87367
901.4072
895.50068
889.63514
884.48129
879.78953
884.97329
889.38075
873.27628
866.8249
860.47847
867.55674
848.23655
837.44207
826.65755
833.2806
824.30487
767.02482
758.63111
784.12466
792.45662
800.08169
839.91812
866.9183
886.67619
889.93915
894.66801
898.71312
894.16465
878.36811
872.2432
877.40947
872.42584
846.36815
837.84074
836.12201
843.18858
853.25062
863.20921
839.44003
833.51558
815.39472
847.3545
836.8732
829.52443
769.25305
791.92776
798.5626
821.99025
828.50806
859.03682
864.69698
873.57966
850.93348
863.55483
868.45294
886.77083
895.16402
903.82332
890.39748
901.11336
888.82016
901.18038
897.0298
892.85318
882.15549
895.68116
899.86434
886.421
890.63148
904.01991
895.57812
909.31661
921.55971
917.45178
905.1612
900.96625
894.44963
898.76178
912.32462
916.4714
920.60066
925.67572
913.45925
907.19205
903.00717
887.59046
883.19297
891.34871
887.04701
871.32118
875.76527
865.12868
860.34106
878.68233
874.04798
855.40296
850.28674
837.60696
860.41504
879.13555
894.73272
899.22968
883.90998
878.4478
895.35536
890.70954
873.39707
851.54762
857.23884
865.60704
843.34091
829.52492
822.96656
804.91756
842.87752
868.63057
887.67962
892.47207
873.96569
871.11635
890.86175
906.21586
910.59923
911.65476
913.67082
916.54273
927.87557
931.96126
920.69888
917.882
929.68866
925.58215
923.99634
928.12286
938.83945
948.42246
947.85699
943.95523
943.95003
957.09787
971.23383
971.24748
979.09041
965.13047
952.58053
956.52864
946.97205
942.93773
942.28863
952.0283
955.96067
946.32383
935.54452
936.32648
937.86896
940.12534
928.93375
932.45893
936.57766
940.74826
945.40998
950.43252
955.72794
961.11474
973.20014
993.09101
1005.9534
1015.7528
1025.0942
1031.7794
1064.2211
1067.0443
1064.2231
1057.191
1061.8429
1028.7294
1015.7519
1032.2585
1021.9628
1005.9541
1000.2815
1011.1339
1027.4784
1016.4403
1008.525
1000.866
992.71652
987.33439
996.76636
1004.8237
995.51222
1003.9672
1009.1241
1017.6388
1025.0336
1021.494
1013.0941
1010.0057
1023.4326
1024.7226
1058.1266
1039.941
1043.7834
1047.9246
1065.3318
1055.8645
1038.9282
1033.2166
1041.9627
1034.943
1026.207
1021.2241
1029.9648
1038.5602
1029.9934
1039.0654
1043.6914
1050.2703
1061.0276
1059.2398
1052.8852
1056.0885
1047.2427
1044.3663
1057.3908
1053.2065
1034.5471
1025.3867
1035.6497
1026.9773
1018.467
1007.6814
1012.4686
1004.8116
1009.6314
1010.0461
1021.9644
1032.2604
1027.4817
1011.1349
1000.2801
1008.525
1004.8239
996.76379
987.32987
992.71351
1000.8661
995.51164
1003.9691
1013.0961
1016.4421
1025.0359
1021.4979
1012.4716
1017.6416
1009.1256
1000.8839
992.56912
984.14008
979.51151
983.69202
980.35878
976.27729
969.96567
973.87886
977.98897
974.07444
978.31115
984.56081
987.7818
992.04991
988.74336
982.5182
986.40387
982.18227
976.21253
981.20203
973.19883
967.90461
972.13038
967.26868
963.1154
955.71411
961.10738
965.21454
959.87875
964.14082
971.50144
975.76202
980.5571
973.69687
969.45126
962.76896
970.26289
981.20236
992.56926
984.1435
979.51774
983.69583
977.99284
973.88682
969.97588
976.28576
980.36483
974.08097
978.31489
982.1839
987.784
992.05023
986.40363
982.51931
988.74455
984.56464
981.61857
990.59072
1001.7008
1006.9445
993.57367
982.33673
978.13472
990.61488
998.67521
986.41242
994.95965
999.09181
990.11891
993.04052
996.21906
1000.8838
990.1806
998.52944
993.50037
999.34443
994.99362
1000.5723
997.30287
991.14327
986.85791
990.70284
984.837
980.55696
976.21582
972.13449
967.91396
963.12655
967.27621
959.8865
965.21947
969.4504
973.69538
968.41752
975.76384
971.50488
964.14551
956.18522
962.77212
958.54287
961.79294
954.33799
958.53952
951.89904
947.71695
939.07217
946.54236
950.52165
943.25721
947.56884
956.18412
960.48129
968.42028
972.80608
980.11398
986.8592
993.04215
996.22022
1000.5736
997.30705
991.14758
994.99652
990.7043
984.83851
990.18172
998.53147
1009.6343
1004.8155
1009.254
1006.0297
1001.667
995.5634
999.34814
1003.7445
999.94678
993.32656
998.0263
993.50523
989.25269
984.46066
977.17411
982.44684
978.13586
971.44884
978.95987
987.80813
980.28027
986.85681
991.2943
986.1087
981.63775
988.88197
984.51202
991.92364
998.78678
1007.6883
1018.4722
1023.4373
1024.7263
1058.1326
1061.8468
1047.9267
1043.7875
1033.2196
1038.9297
1041.9664
1038.5652
1029.9693
1021.2292
1026.2099
1034.9466
1029.9985
1027.0804
1018.1949
1027.2382
1022.4388
1018.0735
1013.5598
1010.4751
1014.9089
1008.9068
1012.6464
1008.1866
1004.4549
997.85485
1002.4588
1007.7794
1016.4621
1011.443
1017.132
1021.6961
1027.0354
1023.9293
1019.4003
1013.4799
1018.0272
1011.5717
1016.1338
1009.5456
1004.9352
1000.3801
1007.0455
1002.3729
995.22559
990.68179
995.88698
989.3227
996.816
1007.7775
1018.1924
1027.2351
1016.4597
1011.4386
1017.127
1022.4345
1018.0687
1013.5552
1009.2504
1003.7399
999.93939
1006.024
1001.6619
995.55855
988.87367
984.45615
989.25079
982.44243
978.13332
972.80375
980.11314
975.68655
983.16968
978.83841
985.84254
982.78416
978.61282
974.36311
977.43743
973.31547
966.24403
970.37608
966.87155
962.74137
970.29565
967.72184
971.81402
963.64805
959.51757
956.65738
965.2747
969.31512
960.78075
965.02046
967.88804
971.1132
974.60827
967.06694
962.83627
958.6659
954.4672
958.64006
949.59717
954.62086
958.86837
963.17083
971.34785
967.15636
975.34776
972.12637
980.24603
976.04797
973.59636
977.74909
969.25375
959.79449
963.27235
958.99115
962.8769
953.84285
958.14733
953.45504
949.16101
944.92667
954.76154
950.59306
947.14463
951.30169
940.74135
944.95684
955.52525
952.58885
962.60432
971.68469
983.32025
996.65798
1004.1609
1020.5846
1005.0784
1007.1022
1015.5212
1003.5962
1000.5542
1013.5399
1012.2964
1003.8686
995.38907
987.34186
988.56863
975.03399
973.36323
981.64666
990.22327
991.88805
980.2282
982.13921
984.58255
987.1325
991.4021
994.43091
987.49338
984.02816
979.69303
971.50545
975.89923
980.06591
971.94573
977.16991
981.6296
986.85254
991.28906
998.02206
993.32041
986.10152
978.27779
984.7917
980.27749
975.86008
971.4476
967.0857
959.10581
955.01239
950.52605
946.54828
954.34724
947.72997
951.9098
943.2655
939.08965
929.82905
938.91114
943.09478
934.03194
929.8214
919.89528
924.12533
934.03813
938.33653
947.40685
955.01058
959.10563
967.08935
951.87175
942.6696
951.7107
942.66847
951.87145
960.48221
964.88146
969.2803
960.71428
967.9264
963.72088
956.30436
947.0962
956.1359
963.72061
967.92737
975.865
969.28526
964.88704
956.30523
960.71937
965.25672
973.78213
978.28521
984.79683
976.92319
972.61666
965.08588
972.61342
976.92085
969.7703
965.25276
973.77616
967.55343
976.41642
984.50334
991.91515
998.78028
1003.1904
996.33576
992.90801
1000.1996
995.82642
988.47347
980.35636
984.85696
988.98298
980.93192
975.96426
971.42576
966.93997
962.51487
967.53919
958.61852
954.23314
949.91386
945.64966
941.4515
931.6519
935.85986
928.64582
939.63613
935.4426
924.44751
912.33094
921.01512
925.23273
913.75057
909.51752
905.33387
894.81699
884.38439
899.77451
891.88664
874.24011
869.76869
880.11713
862.6604
875.95026
871.6496
884.60938
880.34153
875.99603
862.4246
857.72647
841.27122
846.18892
862.77018
848.78384
843.81954
838.525
833.13935
811.32222
829.64767
810.4102
816.74865
837.29559
819.67745
794.09543
786.23418
757.96715
787.57246
793.80582
817.64201
796.62768
822.39888
816.07862
788.89883
759.69755
767.30194
733.05384
765.70748
772.52356
800.41817
825.60482
842.67267
847.73865
831.25048
806.41911
827.75959
822.42831
799.94096
823.26091
828.52884
808.66826
833.66821
828.19319
802.82953
774.02787
780.31639
805.65377
778.92573
747.38767
740.46181
697.90161
737.41143
772.26533
804.5713
797.83835
767.14726
721.5442
764.95274
756.97288
711.15322
638.92042
646.72266
718.0101
654.60256
526.73471
526.98001
425.74379
579.87852
665.50585
721.55758
729.45947
676.15876
626.37964
689.38968
679.76425
723.53089
682.34441
726.01656
762.56514
796.70894
803.30857
770.45023
732.60736
777.91363
769.94107
722.38747
674.63508
684.79724
733.71389
691.86041
632.8765
620.8864
534.48203
595.3722
659.1548
731.55484
738.50916
797.58351
836.46547
829.46053
859.88121
880.85949
885.98523
865.61678
836.07125
842.5353
849.07681
812.2682
792.57206
785.16282
778.03074
769.61256
822.99175
853.21506
853.10457
859.76484
880.82751
896.97919
910.18409
921.45652
916.68827
917.41835
927.52235
931.93511
922.14645
926.52464
925.85162
930.00656
939.75202
940.31689
936.3014
937.32675
950.636
964.37804
963.11079
956.5931
958.68635
975.56982
991.26089
988.31153
979.07649
965.11891
966.76329
980.32382
972.44444
958.74653
961.83465
974.5071
966.43394
953.74883
957.98956
969.53714
961.73504
965.04242
980.0173
999.71416
995.58559
980.70843
977.48927
985.40091
982.35342
969.84215
974.03442
966.03982
971.0514
963.02205
972.78119
976.61305
974.21311
968.65811
960.99663
957.10811
964.65166
949.35326
932.97288
949.00088
938.48057
946.9982
952.42848
958.26867
952.74514
944.26599
935.18643
927.18453
911.23502
913.01753
921.96487
935.48566
943.54754
944.4858
923.75062
931.79217
920.53562
906.5027
897.57314
881.55312
878.34149
888.46738
906.48222
897.50999
912.13373
923.72685
911.14234
929.53942
943.80021
964.4578
954.84686
970.19608
984.95361
994.07974
1000.7772
989.51614
984.20474
992.31402
988.58098
979.00276
984.41534
976.42311
968.50692
960.45911
954.95953
943.56335
940.50354
937.38236
934.74689
932.21902
930.25148
928.58412
932.97396
923.49215
918.75667
920.81077
925.43839
934.63539
938.94113
942.96099
941.33095
931.97114
930.67325
919.81341
918.98047
914.67949
901.70051
906.21012
907.30728
902.84402
915.53853
911.06719
906.51563
905.58901
891.62389
892.91173
898.17133
900.42733
912.77674
908.23142
895.2077
898.58068
910.77732
915.20855
903.57351
908.07074
905.02114
917.19914
927.85098
929.75954
933.86719
923.77913
921.44187
909.40969
912.38121
916.58446
913.68744
911.6542
910.598
923.18827
923.1887
927.32716
938.19282
938.18775
947.85631
948.41595
944.50573
934.80987
934.16157
938.83842
942.93111
942.28932
952.02438
955.95626
946.321
946.96321
956.51619
952.57455
953.57944
949.41879
945.51757
936.09744
940.11483
941.97966
951.0366