/*--------------------------------*- C++ -*----------------------------------*\
  =========                 |
  \\      /  F ield         | OpenFOAM: The Open Source CFD Toolbox
   \\    /   O peration     | Website:  https://openfoam.org
    \\  /    A nd           | Version:  7
     \\/     M anipulation  |
\*---------------------------------------------------------------------------*/
FoamFile
{
    version     2.0;
    format      ascii;
    class       volScalarField;
    location    "460";
    object      nut;
}
// * * * * * * * * * * * * * * * * * * * * * * * * * * * * * * * * * * * * * //

dimensions      [0 2 -1 0 0 0 0];

internalField   nonuniform List<scalar> 
25278
(
6.7430783
6.6317152
6.6731383
6.6731252
6.5435894
6.6317077
6.7172998
6.7430612
6.7173364
6.6134424
6.6790883
6.7159
6.6786973
6.6408796
5.901374
6.6730373
6.6316387
6.0220624
5.6094641
6.0865672
6.4021343
6.4986472
6.5848564
6.6306248
6.4754121
6.630615
6.5848648
6.4071579
6.3254076
6.3634526
6.2413932
6.2051487
5.8531915
6.0878334
6.1139221
6.0579304
6.0871736
5.9943721
5.9678051
5.7177682
5.8654917
5.8931908
5.7585591
5.7905419
6.0340778
6.2978114
6.5526041
6.4599905
6.1964221
6.1330385
6.0556611
6.0080967
5.4208199
5.6109086
5.8791128
5.9101372
5.8255606
5.7942396
5.4408837
5.5783853
5.6195098
5.4925673
5.389668
5.7661859
5.728895
5.6905485
5.7288418
5.3312084
5.268365
5.3323782
4.844956
5.0283781
5.2358907
5.4426363
5.6505366
5.8057416
6.1142068
6.3635838
6.4987868
6.434256
6.3844147
5.9050254
6.0243723
5.6233727
6.3145002
6.259998
5.4317275
4.6341415
5.1253196
5.6093339
5.6328722
5.1274723
5.1150488
4.20343
4.2714787
5.1374621
5.2377352
5.7061339
5.7085514
5.2281938
5.2286558
4.3564594
4.440587
5.2361634
4.7271337
4.7463782
4.6418441
3.301711
3.2465545
2.4635479
4.1974135
4.1649844
2.4314598
2.4129582
3.3727272
3.4490429
2.3948613
4.2224008
4.2778571
4.2735119
5.6215459
6.3143665
6.5435109
5.1012262
4.1839894
3.2331429
2.4562109
4.1929878
5.4293295
6.2597887
6.3842211
6.4341449
6.0230794
5.90256
5.1171686
4.6265223
4.6340269
4.1597548
2.4225972
3.2862854
3.3560456
2.4021103
2.38167
4.216385
4.719176
4.738674
5.2309973
5.1291595
4.251768
5.1135
5.8962307
5.6036211
5.6278344
5.7021706
6.0188513
5.7052401
5.230048
4.4228624
3.4305463
1.9951443
0.85263254
0.85813252
2.0139571
3.4011641
4.6960705
4.7168587
4.2239733
4.1636022
2.2855234
2.316584
3.3285701
1.9728828
0.88167462
0.80447409
0.28330394
0.31113601
0.93493908
0.92990233
0.32147137
0.29358637
0.80026734
0.87481766
1.9566611
3.2884195
4.3368351
5.2168061
5.2170107
4.6679026
3.3581566
2.2037579
2.2432394
4.1651334
5.5933552
4.6881669
4.1012593
4.2453886
2.1799903
0.73100626
0.26978355
0.25959359
0.73238946
2.2714512
4.3051755
4.8098032
5.3336451
5.776449
6.0883615
6.3257358
6.2064694
6.241913
6.0590919
5.8565179
5.8674809
5.8946176
6.0877957
5.9957864
5.9699642
5.7218888
5.7615552
5.7925713
5.9366147
6.1788355
6.4114655
6.5526169
6.4404153
6.2083886
6.1664604
6.326274
6.2979867
6.1226938
6.1396167
5.9572022
5.8232927
6.0498702
6.0349479
5.9538807
6.1969624
6.4600409
6.4026786
6.0895695
6.1343493
5.882776
5.6206961
5.5860886
5.6253843
5.9124467
5.8293624
5.7996187
5.4529433
5.5019641
5.4021885
5.7710478
6.057556
6.0121678
5.4366881
5.7357088
5.3483709
5.2850122
5.6973268
5.7335858
5.3439102
5.3914024
5.4456545
5.5396011
5.6581678
5.6936028
5.9708566
5.8928473
5.8762467
5.820826
6.1280669
6.1585311
6.2278111
6.0055973
6.0833877
6.09831
6.1844263
6.0095483
5.9916616
5.8539396
5.8802282
5.7560974
6.0219212
5.9475715
5.9324181
5.6173059
5.7266651
5.5528436
5.6297685
5.7128576
5.7880816
5.9220418
6.2083719
6.4403949
6.4113863
6.1786524
6.122296
6.1394805
6.0493157
5.8221049
5.9567374
5.9356427
5.7234087
5.8731244
5.751867
5.6774019
5.6553642
5.636553
5.4844621
5.6832138
5.3949182
5.3682804
5.0823925
5.1435778
4.7475642
5.1123302
5.3970658
5.6853428
5.653097
5.3404829
5.3711088
5.0926928
5.4494909
5.4899228
5.1518375
4.7562222
4.6920225
5.070386
4.5535219
4.6815489
4.1980559
4.2922032
4.5981746
4.792847
4.994139
5.1668587
5.3414509
5.4936544
5.5114787
5.405667
5.5653942
5.5471933
5.3786011
5.2065104
5.230412
5.3625553
5.4483297
5.4705247
5.3853639
5.536128
5.5499855
5.6905467
5.6043514
5.5913268
5.428875
5.4481687
5.277281
5.4035715
5.2331771
5.2165185
5.1877171
5.0412737
5.0075574
4.8074592
4.83787
5.0188791
5.1592018
5.4499741
5.7245421
5.7524546
5.4715654
5.3884821
5.5386109
5.6790796
5.6575899
5.639376
5.4974567
5.5143502
5.4107403
5.5690993
5.5517241
5.3847629
5.2145258
5.3458437
5.3662046
5.1923966
5.1719754
5.0177182
5.0498198
5.2371511
5.2606269
5.432932
5.5943048
5.6065039
5.6917582
5.5518478
5.4514804
5.2817738
5.4059802
5.2362467
5.2202027
5.0757352
5.0988353
5.1221775
5.2648477
5.5226515
5.5397863
5.8115159
5.7422266
5.7236379
5.5860273
5.5753478
5.471429
5.4877334
5.6398132
5.6614306
5.6710745
5.7529311
5.6176152
5.6066933
5.5060115
5.5215783
5.3580628
5.4765263
5.4617181
5.4436154
5.4291078
5.302704
5.3213626
5.1422645
5.2767321
5.3001902
5.3124809
5.1820173
5.162908
5.3400959
5.2267571
5.4109353
5.5863184
5.5647608
5.3917486
5.3734245
5.3526045
5.5294715
5.5151655
5.4891451
5.4691522
5.293318
5.2500058
4.8394168
4.8066509
4.8639275
4.5690961
5.1056214
5.0522055
4.4888035
3.8289884
4.2883476
3.5559764
3.6802313
3.7685732
4.3527242
3.9057774
3.1482575
3.0389058
2.3169913
3.3328065
4.1952781
4.8784717
4.3623649
4.7708108
4.8379427
4.9411394
4.280063
4.0710121
3.9748811
2.9345291
2.3974187
1.6056005
1.6020894
2.3672005
3.402324
2.9746497
3.4592756
3.6380074
3.8484742
4.0588755
4.2665489
4.4566972
4.644734
4.8184778
4.9991487
5.0233589
4.819773
4.7963042
4.5903752
4.6303085
4.8475424
4.87666
5.0526928
5.1974788
5.0490178
5.0690152
4.8952914
5.092757
5.0683261
5.2546668
5.1298967
5.3254969
5.5109126
5.6910533
5.9698305
5.9520881
5.8738312
5.891267
5.5754832
5.53273
5.6539227
5.4626586
5.28141
5.0849544
4.526695
4.8423993
4.7821086
4.4422989
4.1271899
4.2149428
4.9117117
4.8073641
4.7355967
3.9022954
4.0006881
2.8407505
3.282265
3.8344448
4.32154
4.2550609
3.503091
3.7571992
2.9573582
3.6517232
3.7391076
3.061686
2.2107514
2.1791902
3.2194493
2.8106697
1.4619194
1.4386375
1.9644949
2.6655141
3.3386487
3.8815925
4.3536514
4.7206841
5.0426106
5.3822045
5.7830909
6.1272393
6.1583281
6.2276934
6.326212
6.1663482
6.1844365
6.0981896
6.083031
5.853317
5.9914879
6.0095003
5.8799688
5.75549
6.021715
6.0049727
5.9315764
5.9471462
5.6480831
5.6145069
5.7252559
5.5502908
5.6280171
5.7118769
5.7876481
5.8114372
5.7417616
5.7229692
5.6386405
5.4859738
5.584943
5.5739336
5.4688032
5.2993058
5.4273117
5.5219965
5.5394176
5.4608392
5.6060589
5.6172296
5.7526685
5.6705494
5.6604653
5.5047557
5.5207839
5.3568056
5.4759041
5.3116026
5.2987426
5.2748823
5.4420969
5.3187697
5.1387722
5.1172434
5.262294
5.0972285
5.2450275
5.2753043
5.137644
5.1134547
4.9457508
4.9217992
4.7132832
4.9065612
4.8715601
4.8541227
4.8162742
4.6206509
4.579183
4.3525979
4.391236
4.6290359
4.3981388
4.3600702
4.0956979
4.1469078
4.1862326
4.4277446
4.6539978
4.8678872
4.6904789
4.9185674
4.888083
5.1021504
5.3000242
5.4837035
5.3954538
5.3728874
5.1625274
5.2734362
5.0782819
4.9435572
4.974367
5.1960303
5.2244096
5.4264737
5.4421216
5.5260639
5.3475159
5.2489758
5.1533828
5.3699766
5.3515868
5.3187321
5.2926833
5.2115612
5.2389919
4.9956432
5.0937063
5.0594174
4.9537624
4.6775525
4.8120879
4.8446087
4.7164616
4.399561
4.5675747
4.7310793
4.6864458
4.8548139
4.62484
4.6557084
4.4654813
4.4237266
4.125007
4.3677725
4.4083843
4.1805281
4.2241318
4.5051488
4.7660945
5.0051818
5.0343722
5.1551043
4.947146
4.7993954
4.6478568
4.9138899
4.8802342
5.1252221
5.031019
5.2761665
5.2955472
5.0622122
4.7954291
4.756669
4.4461889
4.608197
4.3071617
4.2598105
4.2166524
4.5220181
4.341633
4.1721661
4.5514523
4.8617804
5.143487
5.436456
5.8174791
5.8376043
5.8036762
5.4345625
5.4851423
5.529183
5.8790535
5.8966014
5.8651287
5.8474775
5.4817565
5.5216185
5.5664331
5.320233
5.3736527
5.4398856
5.5076191
5.5850752
5.5629451
5.4822288
5.4696144
5.2736092
5.369492
5.3889594
5.2951143
5.3171942
5.4088587
5.4267672
5.5968255
5.5187856
5.3366361
5.2517586
5.4530791
5.3872175
5.1734005
5.1488781
5.2297425
5.2053057
5.4136773
5.398748
5.3283217
5.3438867
5.1210588
5.0933867
5.1807677
4.9459341
5.061765
5.1792958
5.2018877
5.0875885
4.86109
4.9995715
4.9740964
4.8308597
4.6854463
4.7213786
4.9757883
4.8678223
4.8323481
4.5370228
4.4917952
4.3356566
4.6823382
4.9789699
5.2364691
5.2143279
5.1749059
5.1156586
5.0826008
4.7783259
4.8274778
4.9046359
4.9438319
4.8700365
5.1585767
5.1819633
4.9081646
4.8564572
5.1473063
5.1222177
5.0776963
5.0566732
5.0208176
4.6901784
4.7423394
4.7705144
4.8154474
4.7884935
5.1022679
5.1277407
4.8301942
4.4666505
4.5055011
4.5819649
4.5334926
4.6383641
4.5928471
4.4840033
4.4378928
4.0053281
4.0735438
4.2301083
4.2827138
4.1303958
4.1884588
4.0703903
4.0083885
4.4534172
4.4009454
4.3593114
4.3103584
3.8140821
3.8846054
3.9486183
3.390208
3.5803009
3.8071673
4.0400515
3.9873314
3.5743104
3.8731047
3.9274234
3.6441948
3.7011868
4.0934607
4.1469092
4.352216
4.5430087
4.7222824
4.4814056
4.6832606
4.4606212
4.6903846
4.8741595
5.0719501
4.9022203
4.6908313
4.6624626
4.8568489
4.6651364
4.433874
4.4659586
4.2225163
4.2571247
4.4921546
4.7217066
4.9086123
5.0995381
5.1155291
4.9221932
4.7438418
4.9499475
4.927396
4.7188898
4.496811
4.5251066
4.743113
4.9204674
4.7390342
4.7653785
4.9693971
5.1604404
5.3382071
5.2235481
5.243991
5.1352729
5.1120258
4.8892937
5.0238215
5.0467884
5.1801623
4.9910328
5.1531329
4.9637766
4.9510777
4.7711991
4.9524945
5.1389769
5.1541317
4.9645666
4.791138
4.9932123
4.97253
4.7687553
4.552552
4.5775796
4.7899572
4.5753956
4.788434
4.6055433
4.8337977
4.8082264
4.7811467
4.7526697
4.5792648
4.6136887
4.3460707
4.5467514
4.514873
4.3065578
4.2658826
4.0286517
3.9779591
3.6307687
3.9272679
4.1877318
4.44549
4.1460633
4.1079252
3.8292983
3.8797623
3.5722671
3.8731209
3.8248372
3.508179
3.1684606
3.5269918
3.5760142
3.2245129
3.1663453
2.7433619
2.8118313
3.2245102
3.278851
3.6212245
3.9172359
3.959076
4.2263191
3.972877
3.6692682
3.3333796
3.6842309
3.3425833
3.7596365
3.820697
4.2001829
4.3962145
4.4390194
4.2535893
4.580551
4.6225699
4.9012209
5.0043479
5.0309966
4.9324417
4.6617772
4.7875657
4.9158015
4.6771014
4.6461994
4.3833498
4.5768502
4.3318064
4.5492577
4.5211096
4.2895695
4.3204815
4.3493385
4.1083605
4.3629494
4.1422535
4.4184796
4.2227748
4.518471
4.4798269
4.7552082
4.3056637
4.3554801
4.0089415
3.9465622
4.1762654
4.1280921
4.0784276
3.7388118
4.0172982
4.2632299
4.2981867
4.0606435
3.7632764
4.0371934
3.998744
3.7163547
3.3893799
3.446818
3.7935922
3.4763443
3.8830812
3.6022436
4.0558392
4.4404836
4.7659926
5.0452027
5.2890357
5.2708601
5.2198458
5.2392235
4.9813226
4.9464763
5.0137189
4.7248795
4.6298145
4.6762503
4.3085677
4.2478475
4.3879227
3.9906
3.9275327
3.8667616
3.6421817
3.7077699
3.1276979
3.4549751
3.3901552
3.3299085
3.2679106
3.7541389
3.5245656
2.9358029
3.005967
3.0627764
2.7696917
3.4522368
3.5193778
3.416993
4.0084933
3.9450334
4.4128615
4.4207344
4.792234
5.1040647
5.4359297
5.8040227
6.1274274
6.4599886
6.4022417
6.023576
5.614524
5.2394656
5.7080057
5.237068
4.7352623
4.2398291
4.1824813
4.7160401
3.440498
2.3293568
2.3527686
3.3636877
4.3683613
4.4519308
5.2359118
5.7102664
6.0242888
5.2375694
4.7240403
3.4521396
2.045611
0.83366328
0.90923188
2.001315
0.951732
0.33303878
0.3051147
0.87457579
2.3905999
2.412018
3.3781796
4.7447473
5.6214681
4.274346
4.684208
3.2768907
1.9509883
0.93856841
0.32595372
0.29761476
0.86027759
1.9878821
0.77853032
0.85464499
2.2229763
2.1792432
3.3454334
4.6628345
5.5917724
4.1573178
4.0927743
4.237559
2.1511102
0.70805471
0.27333336
0.28150211
0.76265243
2.3248582
4.3248508
5.4250656
6.0090567
6.0559849
6.1337754
6.0878038
5.6164364
5.7971835
5.7316176
5.6915242
5.729522
5.7682819
5.3953333
5.333498
5.2712472
5.3391151
5.4477018
5.4982146
5.8275362
5.9117789
5.8811944
5.5835801
5.6236282
5.6571715
5.9532814
6.196678
6.2277648
6.1583708
5.8478257
5.8652633
5.8969619
5.879645
5.8385059
5.8189452
5.7835002
5.3838624
5.4409384
5.4883543
5.5312934
5.4826609
5.5221758
5.56769
5.6491896
5.9474334
5.9320942
5.892168
5.8752455
5.5371311
5.5784405
5.6929964
5.9705628
6.0054466
6.0219256
5.7560872
5.7264815
5.6163693
5.3335846
5.2766513
5.225184
5.1905795
5.1693897
5.1680456
5.1864311
5.2075774
5.1895525
4.9110477
4.934548
4.8971672
4.8722759
4.5199294
4.5570089
4.6078486
4.5725413
4.1448381
4.2012679
4.134528
4.0750124
3.4922058
3.593343
3.7782385
3.8538137
3.2870074
3.2015836
3.5253383
3.0037441
3.4068354
2.9860053
2.9228751
2.8654026
3.2817048
2.8725954
2.8166305
2.7723424
2.343697
2.3778869
1.7741124
2.3201398
2.2797054
1.7412141
1.2729971
1.2585489
1.9712026
2.7201716
2.5589123
3.2881546
3.2385289
2.5039941
1.7379001
1.7278115
0.93722024
0.96230981
0.48685079
0.78313113
1.2930508
1.8725413
2.3808101
2.833523
3.201706
3.5406298
3.8385817
4.128707
4.3895353
4.4286881
4.6737468
4.9025368
5.1132433
5.3079362
5.282778
5.1760522
5.3822194
5.4031024
5.2075406
5.2339854
5.3317043
5.1389447
5.162689
4.9574875
4.9307587
4.786181
5.0192455
4.990563
4.9621981
5.0907421
4.8710198
4.7123717
4.7536903
4.6019725
4.8683
5.1096606
5.3288892
5.3047071
5.0777918
4.9781777
5.2268557
5.2520543
5.0164117
5.0489554
5.1388555
5.3600569
5.4327138
5.4471487
5.25672
5.0460298
4.8163823
4.6743184
4.931391
5.1644075
5.3767485
5.5797024
5.491302
5.83963
5.8057267
5.7862086
5.7861532
6.1279666
6.4600158
6.631633
6.6730261
6.7429202
6.7172147
6.6409151
6.5848145
6.4986921
6.4026282
6.0119644
6.0572865
5.69699
5.4351339
5.2838963
5.3430307
5.7330852
5.7703596
5.7348188
5.346315
5.4002154
5.5001284
5.8285916
6.1342088
6.0890713
5.6186104
5.7986841
5.4503211
5.5842356
5.8819133
5.9120313
5.6239414
5.6571897
5.5381503
5.4440704
5.3905648
5.4400313
5.4405214
5.4854259
5.5328164
5.8802756
5.8971273
5.5683235
5.64933
5.4428945
5.5096148
5.4851101
5.4735197
5.2797109
5.2997629
5.3205048
5.3389519
5.42803
5.597608
5.5200762
5.4551463
5.2552361
5.2349166
5.2122238
5.4176782
5.404069
5.1898059
5.1058814
5.3354742
5.3043929
5.2870053
5.2275054
5.1903813
5.1616299
4.8910238
4.9303981
4.8565802
5.1328699
5.1029154
4.8110424
4.4893443
4.5960307
4.7131177
4.8385376
4.5595904
4.3943412
4.4476493
4.7487412
4.7855576
4.9007133
4.6387593
4.4899826
4.5308524
4.8199299
5.0770447
4.9981195
5.2472477
5.1941069
5.1731188
4.8954494
4.966036
4.6754458
4.6337435
4.2931904
4.2385432
4.0843657
4.1485277
4.5315881
4.5768255
4.6203166
4.7144624
4.3885351
4.3411079
4.2011122
4.2537433
4.1409281
4.5456582
4.8788847
4.9298126
4.9648509
5.0295067
5.2795837
5.2960023
5.3494912
5.1307886
5.156252
5.377665
5.3899724
5.1785115
4.9415495
5.0369912
5.1389725
5.246039
5.0501194
5.0285346
5.0060341
5.206085
5.1851463
4.9824586
4.8451644
5.0712226
5.0948899
4.8721197
4.8977577
5.1173035
5.012768
4.9871174
4.9601181
4.7077186
4.7394962
4.6082949
4.8840696
4.8528861
4.5701321
4.2520798
4.4289854
4.5986749
4.7636295
4.7354709
4.7058482
4.4640436
4.4969955
4.2954511
4.5657801
4.5316298
4.4950106
4.2163944
4.1634554
3.870236
3.9185637
4.1654487
3.88649
3.6065534
3.5440186
3.2343392
3.5956632
3.9344691
3.9865987
4.3065264
4.1081316
3.7338294
3.6661773
3.2733532
3.3316926
3.643581
3.2910572
2.922197
2.8507913
2.4315031
2.9202177
3.3924513
3.4559799
3.8992415
3.6933355
3.1648836
3.0902836
2.529161
2.5770118
2.97148
2.4829506
1.982195
1.9305377
1.4689338
2.163352
2.8321523
2.8947931
3.512153
4.0282819
4.4504756
4.8003824
5.0954005
5.0629546
4.7541593
4.7211139
5.0398165
5.0725247
4.7694618
4.812159
4.8415409
5.1371379
5.1596325
5.1385992
5.1153897
5.1149768
5.071659
5.0390251
4.8354704
4.7680325
4.3561777
3.969756
4.064868
4.2679242
4.9360169
4.8728204
4.1829606
3.3119012
2.9231573
2.3809641
1.5890935
1.581245
2.9609956
3.3780771
2.3319766
2.2877356
3.0132249
3.8095761
4.4778618
5.0471729
4.8315369
5.2460551
5.2897416
5.1007242
4.5581086
4.8562778
4.7977956
4.2739012
3.5361106
3.658067
3.7467593
3.1192254
3.8853302
4.3387374
4.4445267
4.2509478
4.0395808
3.8266182
3.6160882
3.4419487
3.3413114
3.3477106
3.889415
3.9641007
4.4062797
4.3590165
4.4043193
3.9566339
4.0134746
4.0838376
4.4985752
4.4538333
4.5024506
4.8501722
4.8889281
4.9159416
5.1963587
5.229485
5.2467663
4.9956691
5.0575572
5.0859315
5.3250465
5.3392933
5.1107884
5.0545566
5.2935566
5.2787204
5.0267791
4.7424947
4.8223859
4.9135493
4.6441587
4.7694623
4.7977626
4.9219019
4.6861838
4.8385032
4.8148723
4.7898329
4.5576497
4.5280864
4.3321034
4.3671177
4.6294367
4.6585406
4.4001847
4.5854104
4.6115373
4.4310817
4.1578927
4.3696081
4.340495
4.3094792
4.2767493
4.2419889
4.2052271
3.9296827
3.9702964
3.7004208
4.005672
3.963071
4.2565302
4.0338498
4.3495045
4.3898716
4.0793518
3.8418427
4.2046882
4.1571151
3.7874877
3.3887505
3.6954028
3.7454443
3.3967311
3.343975
3.6539818
3.3317383
3.6341091
3.5859299
3.2590222
2.9377838
3.2802804
3.2241075
3.1125579
3.0237025
2.095966
2.2510847
2.3407974
1.6979878
2.3963983
2.3035517
1.60283
0.89035079
1.3527278
1.3572705
0.53426061
0.60322736
0.31889762
0.28724634
0.90649281
0.46269205
0.93904197
1.46073
1.4464044
0.78583392
0.92004344
0.35133256
0.67523436
0.60282528
0.31778063
0.17915361
0.19539822
0.48170588
0.18784312
0.17252402
0.17493206
0.17878872
0.18587291
0.202348
0.33204054
0.62993556
1.5105671
2.846693
3.9197986
4.7432215
4.8142707
4.9264253
4.8598934
4.1629142
4.2512414
4.0194725
2.8834851
3.3572573
3.2848168
2.2726462
2.3222179
1.4990749
1.7781442
2.5354252
3.2595187
3.8266567
4.3180814
4.6942347
5.0232284
5.0583944
5.0841206
5.0491559
4.7326497
4.7818308
4.7460141
4.3666222
4.4209429
4.3733312
3.9160356
3.9835225
3.8979716
3.9590963
4.0224655
4.4734141
4.8337027
5.1289774
5.1520781
5.1276693
4.8260138
4.8658283
4.9206844
5.1880334
5.1659094
5.1238246
5.0920098
5.1537741
5.184177
4.9207094
4.8422486
4.7942574
4.8788999
4.5793067
4.4647503
4.5102073
4.619394
4.2730964
4.1171376
4.0490731
4.2157925
4.3802433
4.7021677
4.9698607
5.2211256
5.0982194
5.0429086
4.8293386
5.2461736
5.290264
4.8600635
4.5563136
4.4736657
4.8013135
4.2851977
3.8102236
3.5475152
3.0279858
3.1382839
3.8896395
4.3501751
3.7735932
3.6857337
4.2104431
4.6950513
5.0920209
5.4482749
5.720702
5.9693465
6.2416452
6.4986002
6.5525005
6.2978623
6.3261662
6.4403002
6.4752923
6.4113332
6.3634523
6.4071086
6.3255742
6.2058032
5.8554366
6.0587347
6.1142223
6.0875955
5.995298
5.7607716
5.8942854
5.8669555
5.6532737
5.8064074
5.68536
5.4889124
5.1513918
5.397865
5.3722574
5.340158
5.7777064
6.0883063
5.3410005
4.5633938
5.0750882
5.1156358
4.7584546
4.3023428
4.7571652
4.6939371
5.0916543
5.3723336
5.3976386
5.6851104
5.6529448
5.4482608
5.4885649
5.1504358
5.1716474
5.4502123
5.8733899
5.7245624
5.6390027
5.7920035
6.0346926
6.0496912
6.1395394
6.1787233
6.1224815
5.9363648
5.9571263
5.822962
5.8537742
6.0832367
6.098222
6.1843715
6.2082893
6.1662838
5.9916363
6.0094827
5.8800929
5.661301
5.5862767
5.5094819
5.4424941
5.3769443
5.3238905
5.2768074
5.245464
5.2267234
5.2257661
5.2426093
5.2731674
5.2898062
5.3358573
5.104167
5.0763543
5.0160523
5.0467161
5.0053046
5.2606383
5.2442831
4.9841134
4.9494814
4.9717947
4.6574368
4.7211933
4.8051753
4.8418631
4.7635189
4.4274304
4.5399267
4.4912502
4.3686142
4.268952
4.3357228
4.7042751
4.6737858
4.6241547
4.2157812
4.2866448
3.7687951
3.8569913
4.0134579
4.1858421
4.1213487
3.9328247
3.3831157
3.6828998
3.7659517
3.4878158
3.1952934
3.0779014
3.7632475
3.6748372
3.5762723
2.8002203
2.978548
2.8958662
2.8269164
2.6549336
2.6019698
3.3493067
3.3743245
3.31107
3.4478639
3.3918045
2.7479958
2.8111638
2.5951456
2.6432712
2.7009685
3.4426545
3.5827204
4.1046881
4.5235625
4.4726644
4.0431412
4.1736601
4.5583498
4.8834396
4.958442
5.2222681
5.2432301
4.9917324
4.7050943
4.6049558
4.2301644
4.3741877
4.3238164
4.6630331
4.778284
5.0437147
5.2835021
5.2473348
5.3260579
5.3009368
5.0729218
5.105654
5.0095491
4.7395012
4.8630875
4.8320229
4.5519747
4.595177
4.4353283
4.4799531
4.5229044
4.8142428
5.0733297
5.3015842
5.3752326
5.3576482
5.1357871
5.1621735
5.255271
5.4459391
5.4312295
5.4010183
5.3796769
5.4676648
5.4880743
5.3066248
5.2048943
5.1726044
5.2809201
5.0890092
4.9585344
4.9877428
5.1114697
4.9011957
4.7504239
4.7079998
4.8692529
4.6435473
4.4525501
4.2574001
4.0416079
3.8192461
3.5918096
3.6507012
3.8730159
3.4251002
3.1116523
3.0339743
3.3588422
2.8870985
2.4699849
2.0710099
2.0958376
1.7759936
0.98042811
0.99781834
1.3901165
1.3958893
1.4024798
2.1347494
2.8696987
3.5128639
3.7143052
3.7801145
3.9911589
3.9319926
3.4877109
3.1757353
3.2459383
2.936852
2.1822284
1.8111372
1.7439548
2.0146818
2.4676997
2.9333615
2.4130032
2.3634059
1.7901618
2.4184328
1.9902172
1.732956
0.90193964
1.2389532
1.216672
1.8110188
1.8385103
2.5283544
2.6041988
3.0834005
2.5398556
3.0544442
3.1287141
3.5483955
3.8483454
4.1021478
3.808468
4.0735458
3.8051563
4.08067
4.0456349
4.0088164
3.7449139
4.0464752
4.0856088
3.7879654
3.829297
4.1225634
3.890321
4.2080261
4.5015722
4.46608
4.1666492
4.1236017
3.8959893
3.9500449
4.2975778
4.34163
4.3830447
4.5345873
4.2467858
4.0533639
4.0026262
3.6289368
3.5674355
3.8429091
3.7946231
3.4492241
3.5015984
3.162169
3.0975354
3.5061998
3.4464897
3.0361654
2.9779496
2.535971
3.0320119
3.5156407
3.9553796
4.0107982
3.5775154
3.2918249
3.814379
3.7528561
3.2254685
2.6311291
2.6926698
3.0957778
2.5942946
2.0638792
2.0187333
1.4855945
2.2290985
2.9515623
3.573832
3.6382105
3.015364
2.820149
3.5225705
4.0714404
4.1317546
4.1984252
4.3064327
4.4346307
4.7522003
4.7879675
4.479576
4.3587064
4.7029519
4.6622875
4.5916784
4.6365249
4.9494292
5.2151681
5.1961201
5.1764764
5.17625
5.484902
5.8485998
5.8486595
5.8656428
5.523361
5.2483644
5.2646469
5.0133137
4.9831715
4.9594127
5.2305119
5.2474059
4.9908155
4.6877254
4.7210794
4.7791049
4.8543764
4.5638103
4.6776932
4.7093258
4.8240885
4.9449472
5.0707256
5.2018526
5.338374
5.5882076
5.9837974
6.2681524
6.4828786
6.5423756
6.6790724
6.7227805
6.7537237
6.7227949
6.6082785
6.6663673
6.6134109
6.4828707
6.5105807
6.2971529
6.2680939
6.2151191
6.3770675
6.4036669
6.2548477
6.2297751
6.0600618
6.0451285
5.9088944
6.1322401
6.1445897
5.9335325
5.9613873
6.0920911
6.1098442
6.2724692
6.1898684
6.1753633
6.1017702
6.3114414
6.5356856
6.5940445
6.3646971
6.4529778
6.5518351
6.5815344
6.3869098
6.355856
6.3021028
6.3160393
6.1608278
6.1448553
6.0151734
6.2222159
6.2338288
6.0403632
6.0696316
6.1929585
6.3392772
6.4822951
6.3503135
6.211462
6.2721955
6.2623585
6.18981
6.3961063
6.1971207
5.9539245
5.9243297
6.1617418
6.1496337
6.116999
5.8687119
5.9866363
5.8572793
5.9243736
6.0302727
6.2971574
6.5105981
6.4037276
6.3770683
6.2151404
6.2298665
6.1446831
6.1322196
5.9088754
6.0451635
6.0600795
5.9336226
5.9615407
6.1755008
6.2548993
6.2725451
6.1899719
5.9868576
6.1098881
6.0921172
5.9011678
5.8680894
5.8463882
5.7725975
5.7825808
5.7011138
5.6919587
5.5388965
5.6393433
5.648821
5.553713
5.5708231
5.7214071
5.7999939
5.810337
5.7306742
5.5855439
5.6787213
5.6683731
5.5274339
5.6032856
5.5879278
5.4973442
5.5103488
5.3924111
5.3754546
5.2007659
5.3377333
5.347931
5.2185257
5.2372562
5.4096556
5.4263489
5.5413583
5.3809304
5.369463
5.2126771
5.3453176
5.6032564
5.868084
5.8463751
5.7727291
5.7825997
5.6489702
5.6395333
5.5393635
5.6922674
5.7011413
5.5539136
5.5708261
5.6684629
5.7999406
5.8102458
5.6787044
5.5854309
5.7305106
5.7212811
5.6489233
5.8129827
6.0703593
6.2833364
6.0566724
5.7858553
5.6816667
5.9862921
5.9980334
5.7102282
5.7403853
5.8416156
5.6794992
5.751168
5.8293815
5.9010266
5.6496746
5.6660057
5.5916897
5.7293287
5.709593
5.8394785
5.7602424
5.6170492
5.6025198
5.6999826
5.5618167
5.5413238
5.5274199
5.5106016
5.4976386
5.3762848
5.3927904
5.2191798
5.3482757
5.3699015
5.3811086
5.254761
5.4262371
5.4097816
5.2374777
5.052545
5.2128461
5.1915324
5.3176312
5.1776494
5.1910977
5.0321972
5.0126686
4.812362
4.9937566
5.0042501
4.8328411
4.8542673
5.0519284
5.0703883
5.2544833
5.2732767
5.4438466
5.6027011
5.7512979
5.8294841
5.8396927
5.7603394
5.617163
5.709683
5.7000207
5.5618493
5.649656
5.6660435
5.9243916
5.8573509
5.8680605
5.789943
5.7804421
5.6340025
5.7293986
5.7400583
5.6486755
5.4932138
5.6058698
5.5916406
5.5747171
5.4598584
5.2898353
5.4156715
5.4057203
5.2492288
5.3858457
5.4131336
5.2828735
5.4370664
5.4485579
5.324661
5.3076618
5.4766669
5.3706887
5.5446653
5.7096072
5.8688694
6.1171259
6.3115202
6.5357318
6.5941119
6.6664023
6.5518622
6.453037
6.3021526
6.3558755
6.3160608
6.2339014
6.2223088
6.0152759
6.1449133
6.1608337
6.0404557
6.0926885
5.9591825
5.981963
5.914862
5.89756
5.8873395
5.8103834
5.8194765
5.6802342
5.7711535
5.7614241
5.6657491
5.5106299
5.6264182
5.7135832
5.7304287
5.6564339
5.7905557
5.8012126
5.9251574
5.8483099
5.8391292
5.6969302
5.7116598
5.5601421
5.6706593
5.5166451
5.504868
5.4835018
5.639418
5.5266384
5.3597403
5.3430322
5.473322
5.3191566
5.4538642
5.713559
5.9591211
5.9819356
5.7304324
5.6563603
5.790502
5.9147528
5.8974775
5.8872648
5.8679273
5.7400025
5.6486497
5.7898065
5.7803268
5.6338289
5.4767535
5.4597546
5.5746027
5.4157726
5.4058344
5.2732458
5.4436593
5.3362182
5.5121446
5.4950394
5.659298
5.5847594
5.5753183
5.5530638
5.6288633
5.6184644
5.4460688
5.4621234
5.3752029
5.3580398
5.5435144
5.4787928
5.4897392
5.2943251
5.2758471
5.2013201
5.4162645
5.4268517
5.2210499
5.2416764
5.3134769
5.3932927
5.4792014
5.3011424
5.2831075
5.2650015
5.1595881
5.1791615
4.9666317
5.0902607
5.1095039
5.128057
5.3184326
5.2168179
5.4096372
5.33072
5.522499
5.5118525
5.4513389
5.4611221
5.2597233
5.0356939
5.1217261
5.1019844
5.1981063
4.9873621
5.0072848
4.8936346
4.8717013
4.8485938
5.0812762
5.0598011
4.9674605
4.991572
4.7379944
4.7645248
5.0141284
4.937385
5.1795614
5.4031548
5.6334212
5.9494682
6.2195406
6.2458496
5.9842849
6.0328554
6.0460775
5.7682298
5.6934419
5.9982727
5.9687128
5.9553362
5.919187
5.906996
5.9366896
5.6029728
5.5601546
5.5917234
5.6238961
5.6646059
5.4380486
5.4849794
5.544438
5.6068689
5.616013
5.6898236
5.5277315
5.4433943
5.4273341
5.2350074
5.2528335
5.3532342
5.1646299
5.2897548
5.30775
5.4370996
5.4486015
5.6058009
5.4930637
5.3245922
5.1432105
5.2963697
5.2828446
5.2620165
5.2492919
5.2264371
5.0414627
5.0314442
5.0044746
4.99429
5.1781559
5.014258
5.0328994
4.8338402
4.8138114
4.6020115
4.8158843
4.8326947
4.6231093
4.6002876
4.3764616
4.4015853
4.6240584
4.6461281
4.856319
5.0312602
5.0413822
5.2260548
4.8731591
4.6659167
4.87179
4.6662165
4.8733776
5.0705315
5.0896964
5.1071016
4.9113072
5.0781576
5.0689933
4.8933582
4.6864939
4.894734
5.0690022
5.0781593
5.2618216
5.1071391
5.0894518
4.8934474
4.9112963
4.9307168
5.1256196
5.1432428
5.2962567
5.1137628
5.1040526
4.9316704
5.1042122
5.113768
4.9482971
4.9305623
5.1255101
4.9795906
5.1826583
5.3705559
5.5445841
5.7094649
5.7200971
5.5601523
5.4766789
5.6468548
5.6376209
5.4607021
5.2706255
5.2882005
5.3876203
5.2006292
5.0828753
5.0642519
5.0455644
5.0266305
5.1463795
4.9418939
4.9224336
4.9027305
4.882268
4.860971
4.6362231
4.6592204
4.486835
4.735817
4.7116465
4.4598054
4.1902209
4.3968032
4.4221783
4.1721675
4.1438161
4.113348
3.8682821
3.6031396
3.9347055
3.6885464
3.2946753
3.2281207
3.5529528
3.2065011
3.5213738
3.4756193
3.7645563
3.7227916
3.6792083
3.360574
3.3102138
2.9902645
3.0421648
3.3804781
3.0439343
2.990283
2.9359869
2.8853519
2.5278763
2.8685806
2.5005445
2.5574549
2.8832322
2.4369096
2.1159984
2.0524297
1.7652368
2.1736736
2.222176
2.5858005
2.1753474
2.5293328
2.4709223
2.1101519
1.7914531
1.8442744
1.497069
1.8182924
1.8655935
2.1644879
2.4875313
2.9378174
2.9921254
2.5410196
2.2157277
2.6645664
2.6105481
2.2747693
2.6392615
2.6926749
2.2764287
2.6376941
2.5823585
2.2244412
1.8915303
1.9405783
2.3275823
1.9147448
1.582774
1.5383947
1.1344058
1.3885267
1.6287599
1.9359939
1.8997108
1.3026552
1.0222109
1.5934942
1.5614637
1.0018807
0.54877438
0.52585007
0.74884084
0.43987596
0.24475278
0.27346876
0.19266683
0.44854919
0.8336803
1.322514
1.3524785
0.85358228
0.69197838
1.1027802
1.0692024
1.4420457
1.086605
1.3667146
1.6438336
1.9991918
2.0351642
1.6798404
1.1164362
1.464771
1.4437405
1.0915742
0.88211216
0.90279223
1.3971758
1.1204146
0.71791719
0.69596148
0.39370507
0.48271476
0.61279865
0.91795278
0.8924412
1.4771754
2.1890493
1.9127791
2.7130909
3.3981391
3.4581304
2.7623145
1.9330888
1.9609873
2.2762309
1.4995452
1.0600849
1.0774432
1.098734
1.1094391
1.9082521
2.6516913
2.6421285
2.7016682
3.3909486
3.9522015
4.4016431
4.767909
4.7192993
4.7504521
5.0607958
5.0932721
4.7966925
4.8383177
4.8105773
4.848985
5.1376913
5.1578775
5.1348916
5.1706997
5.489946
5.8392066
5.8053258
5.820106
5.8758751
6.1968562
6.2277789
6.1584565
5.865536
5.5230613
5.5677436
5.8968968
5.8799097
5.5317726
5.6165358
5.9322029
5.8924043
5.5786406
5.6928365
5.9705953
5.9533323
6.0347572
6.29794
6.5525095
6.3261827
6.0832715
6.0053831
6.0218255
5.947334
5.648833
5.7557011
5.7261923
5.8535741
5.822632
6.0495512
6.1395616
6.178653
6.1224923
6.087553
5.9952559
6.2416972
6.2061146
5.8550859
5.9693824
5.7203885
5.7604569
5.893901
6.1137471
6.0585261
5.8663565
5.6514313
5.4464962
5.3355349
5.0864431
5.1467391
5.4873863
5.6839633
5.8042009
5.3671752
5.3937826
5.1061561
4.7465991
4.6808922
4.5372179
4.1786652
4.2749041
4.7349218
4.6666312
5.0626545
5.3629991
5.3249456
5.7740671
6.0876531
6.4070194
6.3255837
6.3634864
6.4113823
6.4752924
6.4403176
6.2082405
6.1663107
6.1843313
6.0981392
5.8798952
6.0093811
5.9914393
5.9568422
5.9361421
5.7916387
5.5502333
5.4670507
5.3796181
5.3018085
5.223449
5.158183
5.0997734
5.1297874
4.8511162
4.8053569
4.8849326
4.9248338
5.187283
5.22463
5.2447516
5.1915379
4.9255593
4.8753959
4.5393784
4.4998925
4.4511477
4.008849
4.0669654
4.1290306
4.0723337
4.4919175
4.4437119
4.3998328
4.3562405
3.8848741
3.9532997
4.0167884
4.1337417
4.5225153
4.4799267
4.0692939
4.2238932
4.5864053
4.6244831
4.278325
4.3269218
4.1862032
4.5679071
4.8900998
4.9611643
4.9932441
4.7063723
4.6117637
4.2391216
4.374418
4.4215937
4.2923588
4.1866644
4.1269135
4.5481396
4.5503091
4.5976518
4.9236167
4.9230172
5.1955237
5.2137509
5.194582
4.9130255
4.8873223
4.9468387
4.9810745
4.9583914
5.2301301
5.2470462
4.9900446
5.0113816
5.2635648
5.2469161