/*--------------------------------*- C++ -*----------------------------------*\
  =========                 |
  \\      /  F ield         | OpenFOAM: The Open Source CFD Toolbox
   \\    /   O peration     | Website:  https://openfoam.org
    \\  /    A nd           | Version:  7
     \\/     M anipulation  |
\*---------------------------------------------------------------------------*/
FoamFile
{
    version     2.0;
    format      ascii;
    class       volScalarField;
    location    "460";
    object      p;
}
// * * * * * * * * * * * * * * * * * * * * * * * * * * * * * * * * * * * * * //

dimensions      [1 -1 -2 0 0 0 0];

internalField   nonuniform List<scalar> 
25278
(
101315.36
101314.91
101316.2
101316.12
101319.95
101314.6
101314.17
101315.29
101314.47
101310.06
101311.75
101313.54
101314.64
101316.88
101325.54
101316.1
101314.88
101323.15
101326.87
101320.21
101315.15
101315.51
101315.54
101312.29
101308.89
101312.12
101315.39
101314.12
101319.79
101313.02
101310.86
101317.09
101312.73
101315.46
101309.18
101315.73
101311.07
101307.52
101311.9
101306.76
101309.79
101304.7
101305.2
101299
101303.09
101305.47
101310.64
101308.22
101304.45
101311.17
101310.65
101319.92
101315.95
101314.36
101315.61
101308.9
101306.76
101313.13
101305.72
101309.74
101304.12
101303.53
101303.32
101308.14
101317.29
101315.96
101307.23
101303.06
101307.72
101309.95
101323.19
101313.68
101316.84
101311.84
101317.23
101309.31
101309.2
101312.99
101315.34
101319.85
101323.4
101325.44
101323.11
101327.33
101319.71
101323.93
101328.78
101331.82
101331.53
101330.35
101325
101325.59
101331.59
101335.71
101337.1
101325.71
101331.47
101329.59
101322.69
101323.98
101331.47
101341.81
101338.39
101324.08
101322.94
101330.92
101324.72
101334.76
101333.07
101341.67
101336.05
101328.51
101348.52
101362.86
101340.68
101337.15
101366.95
101330.68
101338.81
101337.94
101326.22
101319.28
101319.65
101330.98
101335.48
101331.57
101341.27
101335.88
101328.14
101323.68
101323.19
101319.43
101322.38
101324.96
101331.03
101331.2
101323.59
101327.88
101347.71
101333.13
101338.89
101361.66
101365.63
101329.21
101321.82
101330.09
101330.23
101324.28
101336.72
101324.3
101324.86
101330.43
101324.43
101329.48
101322.13
101321.99
101322.25
101337.42
101336.09
101309.89
101338.06
101346.62
101312.34
101337.01
101322.93
101331.33
101338.48
101329.75
101363.12
101361.39
101340.93
101328.52
101346.71
101346.11
101440.13
101391.73
101346.87
101340.85
101394.73
101452.47
101343.39
101343.59
101324.85
101338.17
101341.17
101330.75
101322.69
101321.1
101333.86
101370.28
101364.77
101338.63
101326.54
101330.06
101330.09
101327.41
101352.53
101316.89
101472.44
101433.1
101314.76
101348
101326.9
101318.85
101320.74
101319.56
101315.47
101319.73
101316.8
101310.43
101315.79
101312.81
101309.83
101304.72
101311.18
101307.2
101311.67
101306.93
101305.24
101298.91
101299.33
101302.75
101308.56
101310.34
101307.03
101300.82
101299.03
101303.11
101304.9
101306.49
101304.3
101296.87
101294.57
101300.06
101302.69
101304.05
101304.12
101307.53
101314.82
101320
101311.05
101315.62
101314.52
101310
101304.33
101309.03
101306.32
101312.72
101306.1
101303.75
101303.46
101308.25
101310.1
101319.47
101316.32
101317.1
101310.24
101307.96
101315.35
101306.67
101303.12
101293.82
101294.85
101295.74
101297.56
101291.59
101300.23
101296.8
101301.06
101302.75
101302.04
101298.5
101301.16
101294.3
101295.09
101296.3
101300.27
101295.11
101292.23
101290.98
101290.23
101285.92
101294.73
101291.32
101290.34
101283.54
101287.21
101283.55
101281.95
101288.37
101289.29
101293.48
101300.92
101307.2
101308.68
101302.82
101306.42
101304.29
101300.61
101294.74
101297.03
101299.42
101301.07
101299.59
101295.84
101296.66
101303.13
101305.34
101303.76
101307.75
101301.33
101309.15
101302.44
101301.88
101300.21
101303.57
101301.46
101307.89
101317.21
101320.78
101309.24
101303.01
101312.08
101303.99
101302.25
101300.54
101313.82
101319.28
101326.72
101313.32
101300.08
101298.11
101289.91
101284.64
101298
101288.38
101299.71
101294.28
101292.03
101292.32
101295.13
101297.03
101291.92
101293.05
101289.16
101295.87
101293.03
101286.81
101289.74
101286.75
101286.4
101296.7
101289.46
101289.27
101286.56
101284.25
101279.58
101287.18
101277.39
101278.66
101285.26
101285.83
101284.53
101288.48
101281.89
101289.89
101293.41
101293.12
101301.12
101295.84
101286.9
101290.29
101287.02
101297.09
101303.46
101305.62
101294.57
101292.27
101292.59
101294.95
101297
101292.34
101293.57
101300.1
101296.34
101285.62
101288.75
101285.25
101286.35
101289.59
101283.69
101286.8
101289.1
101289.04
101296.98
101286.48
101284.39
101279.91
101287.6
101277.65
101279.07
101278.34
101274.47
101268.85
101269.39
101278.48
101282.57
101290.44
101283.49
101291.95
101283.45
101280.17
101280.13
101279.1
101285.5
101278.55
101285.06
101289.09
101283.66
101277.39
101277.05
101277.88
101271.49
101278.42
101275.02
101281.11
101280.14
101275.04
101273.17
101266.64
101273.45
101265.82
101274.41
101265.14
101264.21
101270.87
101266.38
101273.3
101277.98
101285.93
101275.61
101277.35
101281.85
101291.54
101292.62
101299
101303.08
101303.68
101316.78
101319.04
101310.33
101301.68
101301.18
101302.65
101314.13
101301.79
101321.08
101326.91
101323.46
101319.06
101297.02
101300.29
101300.18
101295.75
101296.17
101333.2
101351.08
101314.01
101322.88
101328.38
101321.32
101302.99
101303.41
101303.1
101302.84
101308.07
101345.01
101352.39
101296.55
101292.02
101303.59
101305.43
101304.48
101297.51
101292.98
101295.97
101287.04
101290.97
101288.11
101292.06
101289.19
101298.31
101290.32
101278.45
101284.87
101278.15
101278.74
101282.5
101274.43
101282.9
101281.89
101282.41
101278.18
101267.9
101273.99
101277.81
101283.29
101281.39
101284.81
101292.03
101291.6
101300.31
101303.97
101301.62
101297.56
101288.97
101295.65
101297.46
101302.68
101303.14
101301.89
101299.73
101300.77
101309.75
101299.97
101312.76
101301.2
101302.48
101301.92
101320.79
101305.35
101300.11
101298.35
101302.06
101297.95
101299.05
101326.99
101322.81
101319.25
101292.45
101318.96
101295.45
101292.33
101297.94
101330.91
101351.99
101341.18
101288.29
101281.83
101297.3
101271.47
101294.95
101278.4
101294.08
101287.39
101301.47
101294.14
101301.88
101303.04
101299.96
101301.88
101303.86
101299.09
101300.46
101297.21
101295.76
101291.41
101292.54
101295.54
101290.92
101286.78
101295.35
101294.53
101291.36
101292.79
101282.93
101284.1
101287.59
101283.07
101282.38
101288.03
101289.44
101290.66
101283.31
101291.76
101286.28
101279.25
101283.59
101280.13
101280.14
101274.87
101279.7
101278.49
101282.62
101274.76
101277.62
101284.15
101289.16
101286.28
101279.38
101277.45
101278.52
101272.04
101278.38
101274.64
101265.79
101273.37
101280.81
101273.15
101266.44
101268.53
101269.13
101269.01
101273.08
101271.61
101261.32
101269.53
101258.35
101261.58
101252.99
101256.13
101266.18
101269.51
101278.1
101278.19
101277.46
101281.33
101272.57
101278.93
101272.93
101281.93
101268.44
101269.41
101254.29
101261.55
101266.94
101273.82
101270.5
101275.01
101282.54
101287.15
101290.26
101298.46
101292.29
101296.12
101289.05
101294.4
101294.5
101291.42
101284.93
101289.2
101282.11
101285.8
101285.19
101291.1
101281.43
101278.76
101275.96
101287.19
101288.98
101295.73
101301.62
101295.66
101290.3
101286.61
101287.11
101291.4
101285.82
101289.58
101292.75
101282.65
101281.42
101277.41
101277.79
101281.21
101280.23
101288.36
101291.41
101278.25
101275.65
101286.49
101271.74
101283.82
101273.2
101271.34
101256.9
101265.66
101271.03
101277.89
101272.61
101276.37
101269.47
101265.25
101260.49
101269.15
101275.92
101280.39
101278.08
101283.52
101281.56
101273.74
101266.1
101273.12
101264.83
101268.15
101261.81
101271.46
101289.59
101284.07
101274.95
101281.82
101294.32
101289.77
101302.38
101294.88
101302.81
101297.69
101296.52
101285.59
101286.73
101281.07
101290.77
101291.53
101290.45
101289.48
101279.41
101277.74
101279.56
101266.73
101267.22
101272.01
101273.03
101277.88
101285.77
101281.17
101277.24
101273.96
101277.08
101275.58
101272.1
101270.04
101273.6
101274.55
101283.68
101281.22
101270.94
101266.84
101278.92
101276.05
101263.3
101262.56
101266.08
101268.3
101281.02
101278.36
101272.9
101276.31
101265.08
101267.85
101270.72
101262.95
101267.01
101271.24
101268.9
101264.13
101254.56
101260.58
101263.58
101258.47
101252.87
101247.97
101259.34
101254.8
101259.06
101248.18
101257.07
101251.99
101262.77
101271.24
101283.73
101286.81
101293.58
101289.93
101298.21
101285.56
101285.13
101285.02
101276.86
101275.55
101283.16
101279.65
101270.03
101268.39
101280.95
101285.09
101291.76
101290.47
101300.14
101286.13
101284.19
101284.08
101274.71
101274.34
101283.82
101279.49
101268.07
101258.24
101258.66
101261.15
101270.22
101271.73
101279.58
101279.36
101292.08
101274.62
101275.19
101274.49
101262.33
101260.8
101250.68
101246.56
101258.75
101269.12
101278.02
101278.08
101293.52
101276
101273.42
101273
101263.85
101267.25
101266.51
101270.47
101284.09
101263.93
101278.72
101265.76
101265.53
101247.27
101258.14
101246.03
101250.27
101256.82
101262.36
101253.62
101260.83
101252.6
101262.5
101266.58
101278.57
101268.51
101261.43
101267.52
101269.93
101270.42
101262
101253.06
101244.25
101233.34
101243.79
101254.04
101256.62
101269.48
101269.85
101260.07
101249.76
101258.7
101262.05
101253.49
101244.22
101238.76
101250.75
101259.61
101249.33
101246.2
101255.94
101264.33
101271.14
101266.44
101267.45
101262.66
101261.71
101252.01
101258.22
101259.37
101265.52
101257.04
101266.93
101261.12
101250.3
101245.75
101250.75
101261.6
101267.02
101261.51
101247.92
101256.77
101255.93
101246.33
101235.36
101236.89
101248.85
101236.97
101247.99
101238.18
101249.67
101248.36
101251.1
101255.35
101248.67
101243.24
101229.79
101239.72
101245.01
101236.79
101247.15
101238.49
101251.71
101242.84
101249.74
101256.54
101262.64
101267.48
101286.04
101278.71
101264.23
101259.78
101262.72
101277.51
101260.98
101270.74
101284.18
101257.53
101256.62
101274.54
101248.47
101250.75
101251.26
101230.52
101239.69
101247.87
101233.54
101244.02
101235.83
101223.81
101208.38
101224.03
101218.48
101233.79
101219.4
101234.88
101240.88
101234.13
101226.38
101242.2
101238.59
101251.72
101256.66
101257.54
101252.49
101238.89
101245.92
101252.87
101241.4
101240.28
101225.9
101236.53
101222.91
101235.21
101238.38
101226.15
101221.95
101223.53
101208.38
101225.06
101211.05
101227.1
101214.66
101232.26
101230.93
101245.15
101221.86
101222.48
101201.24
101201.87
101213.27
101217.48
101226.28
101208.34
101223.11
101233.72
101226.53
101213.73
101195.24
101211.2
101220.58
101207.56
101187.73
101171.93
101196.37
101184.35
101208.27
101188.12
101213.41
101234.5
101249.75
101261.47
101276.66
101274.29
101270.41
101272.95
101259.34
101263.05
101264.81
101254.88
101252.52
101246.68
101231.38
101239.58
101241.76
101224.37
101238.07
101254.4
101253.01
101236.87
101221.92
101221.88
101241.1
101259.83
101277.1
101294.04
101289.52
101262.85
101261.43
101239.78
101233.12
101249.38
101229.36
101229.22
101246.47
101258.44
101268.71
101269.24
101274.69
101283.87
101285.81
101296.61
101303.18
101308.28
101315.22
101323.02
101327.02
101330.17
101329.31
101332.27
101330.22
101340.24
101332.21
101321.74
101333.02
101367.67
101364.42
101337.22
101342.33
101339.16
101324.8
101322.46
101323.16
101323
101322.61
101339.58
101309.54
101354.19
101351.3
101325.3
101338.3
101394.21
101447.06
101334.41
101368.99
101363.58
101342.52
101330.23
101327.42
101336.72
101330.2
101337.23
101324.96
101335.7
101397.08
101457.26
101331.14
101312.33
101334.93
101338.42
101362.85
101367.39
101333.57
101321.7
101325.77
101337.73
101328.73
101324.32
101343.57
101305.39
101494.9
101461.71
101331.98
101354.71
101329.69
101316.88
101320.23
101310.77
101311.12
101320.08
101313.9
101313.07
101317.36
101316.24
101307.38
101308.16
101303.49
101303.45
101308.14
101309.9
101305.7
101303.62
101306.83
101308.84
101315.48
101309.61
101304.14
101297.65
101304.02
101304.48
101301.87
101300.07
101289.61
101290.59
101291.64
101290.95
101297.77
101302.88
101301.97
101294.32
101295.09
101287.09
101281.51
101279.65
101277.96
101279.98
101283.33
101293.01
101291.65
101297.73
101301.77
101295.9
101289.35
101291.9
101300.36
101294.71
101295.42
101287.03
101287.92
101284.56
101273.79
101274.88
101271.04
101271.67
101270.11
101269.95
101271.29
101273.19
101271.87
101256.11
101256.72
101260.9
101260.39
101248.34
101249.08
101242.17
101241.21
101222.74
101223.41
101233.74
101233.27
101209.49
101210.65
101222.05
101209.5
101187.86
101203.06
101203.21
101172.94
101199.94
101178.95
101202.57
101224.93
101238.11
101228.77
101248.9
101292.63
101281.08
101250.65
101241.17
101239.64
101269.01
101238.46
101258.37
101228.16
101242.38
101256.03
101256.41
101264.24
101293.18
101264.54
101286.81
101241.03
101225.45
101231.88
101285.41
101336.91
101276.61
101310.2
101272.22
101287.57
101276.07
101286.66
101277.63
101286.64
101284.6
101274.36
101279.45
101283.47
101287.98
101290.82
101295.03
101289.9
101296.22
101292.27
101289.79
101282.72
101285.35
101282.14
101277.07
101270.32
101275.92
101272.31
101278.85
101285.89
101292.4
101295.05
101289.25
101281.84
101282.36
101279.6
101284.19
101288.04
101296.53
101302.14
101292.49
101287.18
101295.76
101290.36
101287.53
101279.06
101281.32
101289.81
101285.81
101284.86
101279.22
101273.48
101266.42
101262.32
101270.59
101276.76
101287.86
101288.91
101286.52
101297.49
101295.54
101301.03
101301.29
101301.76
101307.1
101314.17
101315.67
101314.94
101313.9
101316.25
101314.63
101314.63
101314.48
101319.16
101309.95
101315.54
101314.75
101307.71
101302.28
101306.85
101307.08
101316.03
101308.54
101301.93
101301.66
101305.58
101310.03
101319.05
101312.87
101312.27
101304.43
101307.71
101314.39
101307.61
101301.89
101294.72
101293.42
101293.22
101293.22
101284.28
101285.03
101278.02
101280.22
101290.26
101290.38
101277.72
101281.68
101272.11
101272.04
101280.29
101276.92
101274.23
101272.07
101269.59
101270
101273.88
101283.32
101279.57
101278.29
101265.79
101265.67
101268.49
101281.25
101279.07
101271.29
101268.4
101272.6
101281.26
101283.57
101287.95
101294.75
101303.02
101291.27
101286.29
101286.27
101289.99
101298
101286.97
101293.64
101295.45
101291.13
101293.67
101285.89
101277.83
101279.41
101283.08
101274.8
101277.35
101270.02
101267.08
101259.16
101267.77
101274.54
101272.44
101284.76
101279.34
101283.13
101276.7
101278.17
101274.07
101281.96
101277.34
101284.72
101278.18
101278.04
101281.7
101272.6
101263.67
101265.31
101255.2
101265.44
101263.93
101253.6
101250.38
101261.86
101269.46
101271.03
101263.71
101265.73
101275.32
101277.06
101275.28
101265.23
101261.98
101265.98
101273.86
101261.95
101251.57
101256.78
101261.91
101266.93
101258.94
101258.26
101261.04
101269.2
101271.79
101264.29
101259.49
101267.72
101264.51
101255.25
101252.12
101261.58
101256.77
101260.18
101264.21
101254.54
101249.19
101243.75
101255.89
101260.58
101250.15
101238.89
101243.92
101250.4
101256.42
101263.54
101271.63
101263.76
101254.78
101248.9
101258.6
101267.4
101277.27
101272.95
101273.75
101280.86
101266.13
101268.66
101263.52
101261.32
101262.75
101272.79
101285.99
101280.93
101268.58
101274.14
101273.63
101268.78
101268.21
101279.12
101261.08
101261.19
101254.59
101254.89
101253.41
101273.83
101295.57
101281.27
101265.02
101271.28
101272.36
101266.92
101269.18
101287.65
101258.73
101256.33
101247.13
101249.51
101247.45
101267.03
101301.19
101277.89
101263.08
101270.16
101276.26
101280.74
101285.22
101292.96
101302.1
101289
101287.21
101299.57
101290.21
101285.17
101275.19
101275.92
101286.2
101281.95
101278.79
101283.42
101284.33
101291.1
101300.47
101301.74
101320.73
101324.75
101307.41
101300.51
101299.7
101301.15
101321.28
101310.67
101347.83
101343.46
101344.29
101292.88
101282.36
101299.79
101300.16
101295.69
101326.4
101289.48
101318.86
101298.47
101312.85
101317.46
101314.92
101300.76
101299.98
101297.53
101297.95
101306.73
101324.35
101322.18
101313.95
101291.51
101289.54
101295.35
101295.63
101283.55
101286.2
101283.13
101291.69
101290.17
101295.41
101295.97
101297.23
101279.58
101282.07
101295.32
101295.04
101280.65
101276.79
101262.05
101262.49
101271.95
101271.32
101261.17
101268.76
101260.65
101261.65
101272.23
101270.05
101271.76
101259.52
101261.9
101258.21
101266.83
101273.58
101257.84
101254.56
101269.1
101261.43
101255.28
101243.43
101247.15
101251.92
101239.05
101245.46
101245.2
101252.29
101241.24
101249.46
101248.7
101251.94
101240.59
101246.09
101238.51
101231.26
101244.69
101241.01
101226.59
101236.91
101238.07
101226.92
101211.45
101225.12
101223.57
101227.68
101235.02
101245.31
101257.71
101248.49
101234.25
101225.42
101238.15
101251.94
101258.69
101254.64
101264.5
101253.26
101241.6
101237.19
101249.76
101261.6
101250.85
101243.23
101246.79
101228.69
101212.28
101233.97
101241.33
101233.42
101241.18
101256.64
101252.79
101250.51
101253.77
101278.05
101295.16
101353.75
101282.09
101333.88
101292.67
101287.91
101293.14
101337.03
101278.16
101378.15
101442.06
101306.11
101306.42
101378.62
101253.2
101287.12
101287.16
101395.2
101305.2
101307.91
101437.14
101316.06
101373.18
101259.39
101391.22
101319.25
101297.04
101457.87
101518.86
101673.26
101480.15
101442.76
101456.98
101203.84
101233.38
101522.29
101268.53
101390.9
101297.04
101344.8
101307.19
101321.71
101302.74
101302.71
101323.12
101312.07
101301.39
101302.04
101302.84
101301.95
101350.74
101327.32
101296.74
101292.63
101291.05
101266.44
101294.32
101276.56
101293.9
101286.36
101300.19
101290.54
101291.98
101301.63
101287.66
101284.33
101284.57
101278.65
101278.42
101294.31
101278.89
101273.54
101274.42
101259.4
101247.75
101258.96
101268.51
101279.59
101281.24
101285.32
101275.05
101268.82
101270.9
101280.12
101283.48
101290.23
101298.15
101302.46
101293.82
101285.47
101285.61
101285.81
101290.18
101294.5
101291.94
101280.07
101280.21
101275.32
101276.18
101275.16
101282.46
101275.99
101289.82
101286.37
101295.92
101302.02
101313.41
101318.05
101316.56
101303.16
101300.69
101299.88
101300.08
101309.35
101326.03
101318.94
101320.22
101292.97
101293.08
101298.15
101298.89
101295.25
101317.33
101299.93
101313.47
101302.61
101311.98
101306.81
101312.01
101310.9
101315.46
101310.56
101305.56
101303.86
101307.03
101308.63
101308.6
101312.91
101313.93
101319.7
101317.14
101312.72
101315.62
101308.91
101310.93
101307.58
101305.21
101304.63
101309.66
101317.15
101309.14
101307.68
101303.86
101301.91
101301.16
101308.87
101321.04
101319.35
101315.14
101320.23
101326.99
101318.99
101303.45
101300.32
101298.23
101300.38
101313.18
101302.34
101309.07
101301.27
101307.61
101316.96
101311.48
101303.5
101301.9
101288.66
101293.04
101299.52
101301.14
101305.29
101299.16
101303.26
101300.72
101304.2
101302.63
101306.39
101299.46
101296.99
101294.93
101291.6
101295.97
101297.28
101300.33
101300.6
101299.1
101292.56
101295.32
101291
101280
101278.46
101273.92
101272.79
101268.26
101267.51
101263.9
101263.34
101262
101261.68
101262.87
101263.02
101271.89
101274.54
101259.48
101258.79
101256.26
101256.71
101254.26
101271.23
101270.28
101253.6
101253.05
101253.6
101238.18
101242.79
101246.46
101247.34
101243.12
101225.86
101231.47
101230.78
101226.65
101218.48
101220
101239.29
101238.6
101237.55
101219.33
101221.43
101191.97
101187.31
101201.91
101211
101208.81
101202.9
101181.46
101182.31
101185.25
101177.38
101156.72
101143.41
101182.64
101192.12
101189.45
101153.16
101156.13
101183.51
101209.22
101210.02
101232.38
101248.89
101250.72
101266.06
101264.75
101295.49
101272.3
101257.38
101259.57
101235.7
101214.13
101231.56
101231.26
101247.7
101259.31
101269.58
101259.52
101262.17
101271.06
101276.2
101277.5
101287.13
101284.12
101272.03
101263.83
101262.38
101252.66
101253.64
101263.54
101272.49
101274.01
101278.82
101284.12
101290.79
101295.91
101301.64
101291.71
101287.56
101287.09
101282.11
101283.24
101292.92
101284.52
101278.54
101278.26
101266.17
101258.83
101267.3
101274.62
101282.24
101287.53
101289.31
101281.02
101276.72
101279.44
101285.82
101286.45
101292.79
101296.51
101302.65
101298.54
101290.58
101289.56
101289.54
101294.53
101294.55
101291.68
101285.43
101287.53
101283
101281.77
101281.02
101288.51
101291.35
101286.89
101289.74
101284.64
101294.29
101289.49
101268.77
101267.71
101261.44
101263.64
101264.2
101277.99
101293.14
101282.18
101299.01
101244.79
101247.38
101235.1
101238.68
101259.53
101231.04
101193
101220.73
101235.23
101250.61
101254.94
101239.64
101240.26
101255.93
101243.54
101242.86
101226.37
101212.7
101185.62
101185.81
101176.6
101178.58
101200.95
101199.85
101174.72
101209.86
101208.61
101227.85
101216.66
101212.91
101182.75
101188.1
101139.56
101178.01
101143.53
101174.79
101151.76
101148.28
101100.68
101159.01
101145.81
101174.73
101191.13
101208.93
101188.22
101206.28
101186.94
101206.6
101211.82
101221.27
101209.31
101225.64
101216.21
101197.04
101189.19
101210.54
101194.52
101214.39
101232.42
101236.82
101220.2
101229.42
101222.83
101211.53
101230.38
101224.57
101223.21
101232.24
101214.09
101200.6
101203.29
101181.37
101192.15
101201.71
101213.62
101192.17
101176.4
101163.79
101182.66
101206.53
101224.09
101206.2
101229.16
101218.7
101237.74
101246.93
101259.59
101244.36
101228.4
101227.21
101243.47
101258.75
101245.7
101237.55
101212.15
101211.52
101185.22
101184.71
101217.49
101203.83
101230.98
101241.63
101256.92
101238.97
101218.47
101218.88
101239.53
101249.86
101236.65
101237.82
101242.35
101244.99
101257.36
101251.75
101237.26
101233.67
101248.78
101255.01
101252.51
101245.46
101256.95
101273.41
101270.24
101269.16
101270.02
101277.18
101288.17
101288.04
101288.37
101275.09
101262.52
101269.47
101251.32
101252.32
101250.91
101259.33
101266.54
101249.59
101235.24
101237.52
101241.81
101246.34
101230.1
101238.04
101240.31
101247.47
101254.23
101260.25
101265.92
101267.36
101279.01
101294.29
101300.15
101305.01
101309.03
101311.56
101313.12
101314.21
101313.23
101311.7
101312.07
101309.65
101304.69
101308.52
101305.86
101299.9
101295.42
101301.96
101306.8
101298.98
101300.35
101299.22
101292.25
101290.9
101292.84
101298.12
101294.44
101298.73
101299.63
101306.31
101304.43
101304.06
101298.1
101295.92
101305.3
101307.15
101311.17
101307.99
101308.93
101309.11
101311.63
101312.04
101309.21
101305.02
101308.24
101311.4
101308.19
101307.61
101305.75
101309.06
101310.78
101313.28
101313.56
101310.06
101311.94
101311.02
101313.85
101312.01
101311.32
101310.64
101311.53
101311.39
101313.83
101311.08
101308.02
101304.37
101302.33
101302.49
101303.56
101294.25
101302.54
101301.48
101306.09
101308.75
101307.6
101302.93
101295.87
101300.77
101299.33
101294
101291.93
101292.97
101299.85
101295.63
101300.01
101299.47
101299.68
101304.91
101305.16
101304.73
101306.9
101300.52
101295.88
101294.36
101287.7
101280.58
101289.16
101289.09
101279.67
101278.56
101278.64
101287.87
101281.99
101284.32
101284.8
101283.57
101291.85
101294.23
101288.81
101293.83
101284.49
101278.36
101291.33
101279.28
101273.1
101280.17
101276.35
101272.52
101266.69
101267.84
101280.5
101271.38
101275.57
101279.5
101284.76
101285.92
101289.56
101276.82
101268.62
101281.95
101291.08
101293.93
101287.14
101280.31
101288.85
101287.11
101277.89
101277.61
101278.31
101287.49
101280.83
101282.92
101283.39
101282.93
101291.26
101292.87
101287.29
101292.45
101283.03
101279.47
101291.23
101295.91
101299.53
101290.62
101286.99
101282.97
101287.01
101293.9
101287.85
101294.51
101296.63
101285.76
101289.72
101287.19
101295.07
101293.55
101304.3
101294.04
101299.24
101299.37
101295.19
101298.28
101295.12
101290.25
101290.7
101284.64
101285.4
101277.63
101279.93
101272.82
101271.61
101275.21
101270.35
101280
101275.94
101288.84
101280.45
101283.19
101278.07
101274.23
101268.8
101268
101270.58
101272.77
101260.93
101270.68
101264.55
101259.17
101250.71
101254.13
101270.02
101257.9
101264.72
101270.11
101277.52
101281.97
101287.22
101288.85
101291.91
101291.71
101288.25
101295.88
101299.98
101296.72
101300.32
101292.13
101285.8
101294.03
101304.61
101302.96
101295.39
101300.75
101305.58
101299.83
101300.3
101300.63
101306.44
101304.36
101303.66
101300.73
101295.3
101293.02
101294.47
101293.82
101298.81
101288.27
101280.43
101290.15
101300.5
101293.52
101300.11
101307.26
101304.65
101299.17
101298.91
101298.29
101299.62
101296.04
101304.23
101303.64
101306.42
101308.19
101311.75
101312.33
101309.43
101309.67
101305.76
101309.48
101308.65
101309.82
101306.9
101308.65
101308.97
101311.79
101311.56
101308.09
101306.19
101309.83
101307.54
101304.89
101301.94
101306.77
101309.75
101310.19
101310.87
101307.86
101307.34
101307.29
101303.75
101309.22
101313.21
101310.1
101313.16
101313.94
101308.36
101312.6
101312.05
101312.55
101314.21
101315.09
101311.31
101316.68
101316.42
101312.99
101306.73
101310.58
101312.51
101308.87
101309.98
101304.92
101307.97
101308.79
101305.48
101309.57
101313.01
101309.13
101312.2
101306.6
101304.22
101300.78
101300.02
101305.59
101302.93
101304.14
101297.98
101298.71
101297.27
101292.83
101292.43
101298.1
101287.04
101285.56
101287.14
101284.66
101288.1
101284.41
101288.17
101288.97
101277.3
101282.72
101284.15
101276.03
101273.93
101277.19
101273.77
101270.36
101271.75
101269.85
101279.59
101269.82
101266.3
101262.43
101264.98
101277.39
101266.28
101270.2
101273.38
101276.78
101279.67
101274.21
101271.13
101267.16
101262.7
101266.9
101259.26
101265.07
101269.69
101276.71
101280.08
101277.26
101281.96
101278.95
101284.8
101274.01
101271.21
101284.92
101276.36
101270.4
101273.75
101266.71
101270.85
101265.03
101272.65
101268.2
101259.75
101253
101262.18
101257.69
101252.55
101257.47
101246.41
101254.09
101262.63
101258.09
101266.68
101268.65
101284.74
101292.11
101296.96
101304.28
101292.4
101294.07
101302.08
101301.41
101300.64
101300.71
101300.52
101291.22
101290.81
101283.18
101285.38
101279.17
101276.41
101282.43
101291.2
101292.69
101278.33
101281.57
101282.05
101285.88
101296.4
101293.91
101293.43
101292.25
101286.4
101282.94
101290.11
101291.14
101290.5
101292.21
101297.59
101298.88
101306.63
101300.13
101302.22
101303.25
101303.38
101300.19
101292.45
101289.69
101279.46
101279.27
101283.23
101267.26
101270.27
101254.37
101260.77
101258.46
101263.56
101257.19
101250.28
101241.38
101249.05
101257.89
101250.27
101241.76
101229.9
101240.08
101249.62
101258.6
101262.39
101267.32
101283.23
101279.58
101274.07
101270.15
101273.09
101269.19
101272.87
101276.03
101282.7
101290.35
101290.24
101296.35
101283.38
101280.98
101279.45
101279.62
101283.75
101296.49
101290.02
101291.88
101284.3
101282.25
101291.5
101299.27
101298.46
101304.67
101300.5
101308
101300.06
101296.83
101299.54
101307.79
101305.41
101298.06
101296.96
101296.57
101296.72
101296.1
101297.56
101294.22
101300.23
101302.23
101302.13
101303.57
101296.11
101297.03
101295.94
101302.08
101301.7
101303.11
101303.3
101296.21
101288.8
101280.34
101282.92
101280.12
101272.23
101263.86
101257.68
101251.74
101241.85
101249.61
101240.37
101250.95
101244.45
101231.78
101219.71
101231.5
101241.63
101230.96
101217.87
101208.46
101189.96
101166.58
101195.11
101178.06
101141.47
101148.37
101166.26
101133.44
101164.64
101175.12
101193.34
101205.48
101221.38
101209.55
101232.06
101223.6
101197.8
101210.9
101194.2
101224.7
101246.76
101288.94
101275.09
101258.14
101275.98
101241.57
101243.83
101243.95
101244.03
101250.4
101280.25
101293.23
101235.74
101242.64
101245.21
101247.83
101277.32
101252.17
101283.24
101244.1
101256.76
101242.84
101205.5
101210.08
101216.75
101221.27
101189.96
101184.72
101173.31
101175.37
101212.1
101202.14
101213.05
101176.87
101171.78
101188.72
101221.1
101210.3
101206.35
101153.38
101152.14
101153.7
101156.98
101215.08
101197.41
101184.35
101186.65
101198.32
101231.37
101233.26
101232.55
101231.1
101291.18
101228.63
101280.59
101221.16
101221.78
101215.02
101220.82
101194.7
101254.32
101391.31
101280.36
101337.13
101234.37
101244.73
101279.05
101255.43
101339.81
101268.87
101334.17
101336.48
101289.22
101312.47
101238.34
101232.8
101234.6
101240.33
101284.93
101233.16
101287.57
101250.54
101235.94
101253.5
101277.67
101278.46
101388.62
101390.52
101278.27
101337.27
101228.01
101239.26
101252.78
101254.64
101264.96
101271.29
101257.23
101242.05
101230.97
101199.95
101198.52
101157.21
101158.53
101203.84
101241.55
101246.44
101295.36
101272.69
101271.76
101262.55
101269.66
101275.62
101279.92
101284.51
101287.19
101287.23
101300.44
101291.06
101284.01
101274.42
101274.68
101268.14
101279.74
101279.81
101284.24
101282.57
101284.64
101296.22
101295.77
101301.49
101300.13
101302.6
101299.61
101298.14
101288.41
101274.14
101275.28
101288.86
101288.67
101278.01
101280.38
101288.92
101295.8
101286.17
101288.31
101298.49
101302.34
101300.9
101303.27
101309.39
101301.37
101292.68
101292
101292.5
101289.8
101278.21
101281.91
101283.48
101287.15
101291.18
101298.18
101302.53
101299.95
101304.85
101309.92
101305.7
101309.34
101315.89
101310.83
101310.36
101304.43
101302.78
101301.54
101306.94
101314.82
101307.25
101315.99
101310.04
101319.12
101298.82
101298.76
101301.05
101305.6
101307.12
101305.9
101297.39
101300.16
101296.35
101310.83
101324.85
101294.06
101293.45
101295.85
101310.04
101317.48
101305.89
101319.15
101318.5
101313.83
101312.74
101318.99
101311.83
101306.97
101307.06
101305.34
101297.79
101296.75
101297.98
101293.9
101286.15
101290.78
101287.88
101292.89
101295.75
101295.92
101294.07
101300.95
101293.87
101299.97
101294.49
101300.79
101297.83
101289.48
101284.08
101285.24
101288.07
101283.61
101292.25
101285.3
101281.87
101278.62
101268.48
101267.93
101259.93
101260.41
101270.73
101261.06
101248.67
101248.02
101260.3
101270.17
101279.11
101294.04
101294.48
101279.36
101279.44
101274.37
101274.62
101279.05
101291.83
101275.46
101280
101292.6
101278.58
101273.35
101260.86
101260.29
101269.9
101274.35
101275.01
101269.15
101261.32
101260.57
101249.48
101250.23
101239.39
101237.69
101235.18
101235.31
101250.63
101251.48
101244.21
101255.8
101255.01
101271.1
101271.09
101269.98
101259.9
101259.95
101255.09
101250.18
101249.97
101260.05
101267.19
101248.52
101249
101266.99
101259.94
101259.91
101270.71
101269.06
101260.8
101256.38
101257.91
101273.8
101272.1
101261.98