/*--------------------------------*- C++ -*----------------------------------*\
  =========                 |
  \\      /  F ield         | OpenFOAM: The Open Source CFD Toolbox
   \\    /   O peration     | Website:  https://openfoam.org
    \\  /    A nd           | Version:  7
     \\/     M anipulation  |
\*---------------------------------------------------------------------------*/
FoamFile
{
    version     2.0;
    format      ascii;
    class       surfaceScalarField;
    location    "460";
    object      phi;
}
// * * * * * * * * * * * * * * * * * * * * * * * * * * * * * * * * * * * * * //

dimensions      [1 0 -1 0 0 0 0];

internalField   nonuniform List<scalar> 
76358
(
36.221151
-0.010771509
2.0237457
1.4731159
-1.4801148
-2.0330869
0.060229973
-34.801663
0.00036750446
2.1432335
2.1296991
-2.0919296
-2.0987986
-1.491652
1.4730112
2.0312803
-2.0569605
-0.059286456
-36.221299
-1.4918376
1.4727963
-2.0570085
2.0312442
-34.674903
-2.0401289
2.0188657
-2.0327241
1.9931815
0.001273643
-34.802156
2.1296767
-2.0919867
-2.0983333
2.1438289
0.0010214637
0.010316703
0.00056425891
-2.0829702
2.0767196
2.0783273
-2.0871204
1.47298
2.0237206
-2.0331359
-1.4802129
2.0767106
2.077952
-2.0871034
-2.0828849
0.00030594524
-0.05387268
10.408451
0.36962748
-0.37437624
-0.53850155
0.53268125
-0.0095003293
-8.2577985
-0.005710042
9.6652148
-0.0073890635
-7.6822427
10.340116
0.0058833535
-7.4056139
7.4254662
-0.034540736
-0.034298544
0.00093201217
0.0012141452
-9.2578473
0.37594714
-0.38790012
-0.52742759
0.51584123
-0.060724243
-36.221129
1.4733042
2.0315491
-1.491408
-2.0567197
-2.0987785
2.1432385
2.1299535
-2.0916743
-34.801647
0.010255178
-2.4920631
-2.5115756
-2.1921672
-2.3385287
0.38493981
-0.38284613
-0.39065154
0.53367079
-2.5291448
-2.4592685
-2.198801
-2.2187048
-0.38856441
0.54371193
0.54253428
-0.38390014
0.00017565178
-0.42601595
-0.015795606
-2.0482291
-0.00029476871
-0.038809299
0.010353141
-7.8089266
-0.52194409
-0.5028495
0.41267664
0.00014075638
0.12964352
0.32544496
-0.37535008
-0.52795279
0.41897424
-8.2468671
-7.6926523
-0.13111195
-0.023653638
-0.095285123
0.023904799
9.3821602
0.37621287
0.36847589
-0.38034379
-0.38622004
-0.38637337
-0.38051363
0.36828276
0.37604974
-9.3852891
7.6926913
-0.094815292
-9.6652782
-0.13141342
-0.12908247
0.33165288
-0.37578273
0.41563792
-0.36749544
-0.36733594
-0.37558244
0.41579833
0.33184504
-1.8164881
-0.0035200437
-0.014957124
-0.047067402
-0.045268148
-2.4752854
2.0863503
0.086718209
-0.09778807
-0.13070935
0.1067772
-2.6280713
0.0017027669
-0.025566693
0.019287785
-0.63963256
-0.6182308
-0.55972669
-0.61090352
0.022579982
0.16889194
-2.0829094
0.16434923
0.083740647
-0.09671595
0.10151262
-0.12924792
-0.11185282
-2.3431095
-0.47666428
0.001954569
0.0055360149
-0.0041446422
-0.0022091904
-0.66481447
0.52135129
0.00020167646
-0.65501215
-0.0013948024
0.0068477201
0.0050045369
0.00023900837
-0.57145877
0.00479194
0.013548852
-0.51606163
0.012445756
-0.01323131
-0.6232066
-0.011080831
-0.57658204
-8.16038e-05
-0.007824758
-0.00088639513
-0.57597014
0.010864099
-0.023989742
0.020586988
-0.032533389
0.025628783
-0.00028223927
-0.12867296
0.0014509806
-0.52782815
-0.00084841529
-0.52640824
-0.0065363516
-0.0065971074
0.095183709
-0.097451599
-0.1314625
-2.0834721
-0.0092971933
-0.37287713
0.36652333
-0.53638807
0.53359153
0.51254312
-0.51856818
-0.53907503
0.00016096611
-9.9056748
2.5262151
-0.13216713
0.13078358
0.13354985
-0.13506165
-0.0022950909
-1.9939695
0.0030328801
0.10751507
-0.13135519
-0.13445896
0.11301082
2.0129302
-0.13410227
0.11254297
0.10745722
-0.12958755
-2.4690888
3.1559343e-05
-0.033982023
2.5597828e-05
-0.0059329074
-0.64129423
-0.61825719
-0.56449676
-0.57422872
0.17141047
1.6303963e-05
-0.62640179
-0.64161878
-0.57395505
-0.56876079
0.16986935
-0.52576618
0.0051085266
0.0067754665
0.00012016122
0.00087787317
-0.65951421
0.53204991
0.00089693037
0.00023954976
-0.66752519
0.0069825479
0.0015679233
-0.0046056227
-0.57696574
0.0016505174
0.012948351
-0.57506039
0.013261381
0.0013115311
-0.56312938
-0.012446274
0.00048019717
-0.56281541
-0.012422069
-0.0010132764
-0.00031786111
0.57599044
-0.012182731
-0.56199638
0.53089201
0.00032184418
-0.66608985
-0.0033563274
0.0070650019
-0.52146588
0.0073050253
4.5578936e-06
0.001081592
-0.6518178
4.6200744e-06
0.57266559
-0.011979302
-0.55992446
1.9062135e-06
0.0024803514
0.012990768
2.7330733e-06
0.012957592
-0.0016234786
0.58434037
0.010519933
-0.57757609
-0.0027031423
-0.0049140562
0.58409277
-0.57838723
0.01053338
-0.0042140952
0.58013647
-0.57852596
0.010950915
0.0019412662
0.5720753
-0.57539524
0.010713435
-0.10010394
0.6254409
-0.52042023
0.0094702902
0.1120458
2.2121088
-2.3686891
-0.12830529
-0.093000087
0.087404315
-0.09294489
-0.12822741
0.1001833
0.087467848
0.045346351
2.0829225
0.083815618
0.10157837
-0.12918815
-0.096642291
-2.3431225
0.37542817
1.8165012
-0.046858841
-2.4753066
10.416243
0.3253795
0.41901409
-0.5279
-8.2469742
-0.0097397061
8.3782958
-0.20119597
-0.0093994526
-0.063514425
-0.012968274
-9.2579887
-0.0037520034
0.51583251
0.37579967
-0.38806212
-0.52748637
0.011205285
0.53363371
0.38476637
-0.38302751
-0.39074156
-2.3386006
-2.4921036
-2.5115597
-2.1921786
0.30105659
8.8012127
-0.38865407
0.54373943
-0.38369838
0.54296024
0.00089420095
-2.5292768
-2.2188478
-2.4593362
-2.1988445
8.3861115
0.00074931756
-10.127928
-0.075452036
0.0007229355
0.51887482
-0.5279027
0.51651743
-0.52433304
0.00073083911
-0.0031337874
-2.0950632
0.0023343335
0.0009730201
-0.0045370988
0.00062593979
-2.0932506
-1.8941729
0.0043756936
-0.003142272
-0.0029703356
-2.6640226
2.0931726
0.0031066976
-2.6275953
0.00074969699
-2.3254487
0.0024961247
-0.0029505839
-2.3268627
0.0038514442
-2.6276917
0.0010338288
-0.0063468194
0.012451563
-2.103742
0.0035792159
-1.9068263
0.0061630831
-0.015777035
-0.015583729
-2.6413392
2.1036638
-0.013916663
-0.0011869324
-2.4949888
0.012629992
0.0032724503
-2.3079767
0.003198501
0.0029971214
0.014102721
-0.0010722611
-0.0012610821
-2.3336628
-0.00091913743
-2.4950454
2.1047624
-0.002236676
0.0023118512
-2.4944108
2.6293116
0.0215879
0.0011814641
0.0064669627
0.00091257048
2.3145709
0.0018345799
-2.3140654
0.0016205524
-0.0024146971
-2.3051423
0.00032095447
-2.0882838
0.00028176492
0.0069953274
-2.6190429
0.00034332729
-2.3048173
0.00037030764
-0.0017818543
-2.2896078
-0.023077332
0.00043519344
0.0092144635
-2.2997167
0.0086557564
0.0027102786
0.0068570263
-2.3125929
-0.0013169085
0.00051151089
0.0094899231
-2.2955821
2.0983577
0.00040323354
-2.4814644
0.00037918378
-0.54325582
2.6187816
0.02389419
-2.0981386
-0.00090223574
0.29986329
8.8008373
-0.010513871
-0.38322643
-0.38768438
0.5445397
-2.4594608
-2.1988254
-2.5292899
-2.2186012
2.0323978
8.3860813
0.01014252
-10.128009
1.9935248
2.0199019
-2.0391074
-34.67519
0.0013550211
-2.0926332
-0.51643176
-0.0050441916
0.0029800141
-0.00160617
-2.3245922
0.0014401849
-0.0034978254
-2.3135988
-0.0030064793
-2.3046076
-0.51674861
-0.00074085022
-2.0880837
0.074291233
0.0042823965
0.519563
-0.52698079
-0.52398647
0.013692433
-8.3783345
-0.061788822
-0.19946541
-10.416436
9.2576233
0.53447185
0.38540765
-0.38234324
-0.3897685
-2.5116662
-2.1919789
-2.3384949
-2.4922052
0.51656547
-0.52651661
0.37639771
-0.38734247
0.0032866157
-2.0928162
-0.0048394768
-2.0946466
0.00064791992
0.0077384372
-2.6288053
-0.001208422
0.0077027403
-0.0016487421
-2.304205
-2.3130537
-0.0043785611
0.0016276121
-0.022945565
-2.2986842
0.010779176
-0.0038307223
-2.2889552
0.010707177
-0.002326211
-0.0025849565
0.011239281
-2.2947718
-0.0020019994
-2.481286
2.104355
0.00071728248
-0.00072549103
-2.4940331
-0.0037584358
2.6271877
-0.0066839046
-2.1033657
0.013575251
0.0040115564
0.0026349987
-0.0037406508
-2.3259854
0.52657404
0.0024280571
-2.6269641
0.37620099
-0.38752357
-9.2572782
-1.8939113
-2.6637143
-0.38522821
-1.9066309
0.006868524
-0.38249752
0.53433015
-0.38985598
0.011558371
-2.3385046
-2.1918808
-2.5115861
-2.4921978
-0.015207014
-0.015033874
-2.6412308
-0.012893594
-2.4947303
-0.00031803811
2.3071115
0.013154046
-1.2262041e-05
-2.3328289
0.0091805349
-2.3114932
0.01117119
0.013544076
2.2685452
-0.0086456594
-2.2754342
-0.0013772022
2.2235114
0.021450104
-2.2211738
-0.01132293
0.01752218
2.2253591
-2.2234456
-0.0071920362
2.2710516
0.0098955874
-2.2782211
0.0021031439
0.0022602506
2.2992587
-2.3120752
2.1045003
0.0019418359
-2.4940903
0.00082503908
0.021632178
-2.0978674
0.022693805
-1.4049752e-05
0.0010753397
-2.4808851
-1.5892373e-05
2.2879825
0.0091186171
-2.2937159
-4.9642447e-05
-0.0013268687
0.0085434744
-4.0315456e-05
0.0088893177
0.0076855543
0.0090522408
-2.2206521
0.011768762
-0.0005444556
0.016279235
-2.2173985
-0.00051861824
1.9876025
-0.0020176763
-1.9475462
-0.0042372411
-0.013172066
-0.0017849277
-0.003581311
0.0011831789
0.016480023
-0.0087789393
-1.9927955
-0.013495452
-0.0019634728
-0.017185298
-1.9538629
-0.0023148707
2.2151675
-0.0099715396
-2.2107088
0.0018716599
-0.011179056
-0.0097139106
0.001485963
-0.010204752
-0.0041754931
-2.297622
0.0022366519
-0.022728474
-0.013304814
-2.1031792
0.0041089769
-0.00041971122
-2.4944953
-0.00093093343
0.3876557
2.1037133
0.0024528784
-2.4933107
0.0031779346
-2.3103888
2.2856747
-0.0021213305
-2.2910062
0.0006591428
-0.023776477
0.00057508653
-0.54320512
-0.0013430601
-2.0968693
0.00031295805
0.54429887
-0.38288799
0.00053152492
-2.2183735
-2.1982836
-2.5291949
-2.4592274
-2.4797325
0.00030672829
0.0089968667
0.00034675849
-0.57241113
-0.57898522
-0.005540222
-0.58421485
-0.57559356
-0.17233114
0.017744035
0.0007638978
-0.56533208
-0.56895918
-0.0064472757
-0.58192984
-0.57784885
0.024010317
0.0021649797
-0.016845402
-0.56400162
-0.55533104
-0.52821531
-0.55474672
0.0022349217
-0.0028018288
-0.030498279
-0.53238258
-0.49757877
-0.38221676
-0.48660928
-0.024025609
-0.0050662866
-0.024838592
-0.49720087
-0.53348405
-0.48766626
-0.37302956
-0.01657621
-0.00041143546
-0.013616476
-0.55748986
-0.5652263
-0.55630433
-0.53179951
-0.0078831023
-0.0054153291
-0.5697864
-0.58237518
-0.57843781
-0.56636569
-2.8560088e-05
-0.005034677
-0.57934364
-0.57577454
-0.57286159
-2.9719439e-06
-0.013978451
-0.57852956
-0.57943872
0.0069203005
0.050468747
-0.59911604
-0.57452252
-0.019389305
-0.16416741
-0.050245023
0.015028489
-0.019075639
-0.0033493901
-2.0863632
-0.025603112
0.016071281
0.086693797
-0.097815634
-0.13069858
0.10678378
-2.6280986
0.0020132193
0.63964887
0.0055161393
-0.47667045
0.0020148618
-0.61092943
-0.61822514
-0.55972613
0.022888889
0.16878337
-0.51606744
-0.00017158523
0.012404103
0.0022303184
-0.013154775
-0.62321086
-0.011120276
-0.0040755019
-0.66482256
0.52135705
0.0001871002
-0.65501827
-0.0012999681
0.0068337548
0.0050967944
-0.57146822
0.0048877802
0.01351648
-0.57658717
4.5271176e-06
-0.0078532622
0.01078012
-0.57597463
-0.00087467578
-0.00018334024
-0.024002426
0.020575741
-0.032534055
0.025626098
-0.12425631
0.00081162975
-0.4812314
-0.0077546558
-0.0051145046
-2.074973
0.091126753
-0.095407893
-0.12891234
0.12211505
-0.36645934
-1.7522812
0.0067952684
-0.372942
-0.53633174
0.52648012
-0.0088044618
-10.408637
-0.011714279
-0.01758379
-2.4762689
0.093495345
-0.093731267
-0.1264384
0.12670244
-0.13046624
-2.3424692
-0.098017708
0.66455701
0.0012321058
-0.47512577
0.00084970542
2.0835098
-0.0007537058
0.13200163
-0.13035884
-0.096702978
-2.6396291
0.095160182
-0.09747675
-0.13144466
0.12868973
-0.0062419439
-0.47634439
-0.0013796034
-0.0020519078
-0.0026201129
-0.0016365376
-0.60473665
-0.0058224656
0.0013507324
-0.00054067917
-0.57744356
0.023292553
0.03187497
-0.0323287
-0.023816483
0.52783336
-0.0016083253
-0.65893907
-0.00074945399
-0.13078334
0.65952766
0.0022977889
-0.53247009
0.00067852195
-0.53366994
2.5262719
-0.13216913
-0.1350001
0.13360857
-0.0020362401
-1.9940303
7.8091321
0.51285656
-0.51831266
-0.53902038
0.00058640218
-9.9060497
0.42608545
-0.52190467
-0.50257171
0.41295306
0.00073129369
-2.048275
-0.038768464
-7.6678932e-05
0.10751529
-0.13136477
-0.13441252
0.11305775
0.0033097254
0.62643514
0.0067737568
-0.52577869
0.0051818833
-0.56880301
-0.64162848
-0.57396059
0.0062648928
0.16983498
-0.57507771
0.0046923541
0.013243881
-0.00087916386
0.0014088705
-0.56314074
-0.012462149
0.00020507613
0.53206393
0.00091813166
0.00034997237
-0.66753948
0.0069989915
0.0016760965
-0.5769921
0.0017705449
0.012952315
0.00058720233
-0.5628325
-0.012419802
-0.0010675001
0.57602541
-0.00020621595
-0.5620197
-0.012144793
0.13406974
0.53091459
0.00041266916
-0.66611452
2.0129847
0.11259325
0.10756694
-0.12948565
-2.4691694
0.00031792777
-0.033763726
0.00028851798
-0.64135236
-0.57427986
-0.5644922
-0.61828693
0.17169905
0.00036894672
0.0071086098
-0.0032770387
-0.0023795844
0.01300429
-0.0073894059
-0.57270362
0.01310135
0.00011988661
-0.52148771
0.00010127698
0.0011796498
-0.65184288
0.000102533
-0.55995008
-0.011885106
0.00010500373
-0.00019466271
-0.002701292
0.00011566859
-0.54460199
-0.032445696
0.026127683
0.026134795
-0.032384589
-0.00042641263
-0.0025961875
-0.54645535
-0.032547425
0.026113687
-0.032449251
0.026146585
-0.00056368123
-0.0024571373
-0.032628636
0.026015982
0.026126881
-0.032530037
-0.54722229
-0.5482078
-0.032720493
0.025905027
0.026034033
-0.032600737
0.0011179039
-0.54928714
-0.03253681
0.032092554
0.03196031
-0.03233514
0.00023983957
-0.0006324516
-0.6644972
0.53599628
-0.67067569
-0.0010430883
8.9940645e-05
0.00028676164
-0.1332844
-0.5346465
-0.00049304649
-1.9564368
-0.13451314
-0.1299466
0.12897267
0.00029039068
-0.0016598405
0.1359751
-0.13390094
0.13157166
-0.12939974
-2.477584
0.000248382
0.13347803
-0.13167468
-0.13435113
0.13635599
-2.5392725
-0.00072403869
-0.53184045
0.00072889924
0.00081642625
-0.52708916
0.00065978558
0.0010431523
0.00077803071
-0.00072539434
-0.65854379
-6.1943787e-05
-0.66445492
0.48109619
0.00054233669
-0.003658325
-0.60448054
0.00012806852
0.0037836186
-0.57715413
0.00015025292
0.032481226
0.023843836
-0.023712591
-0.032264293
0.00026064725
0.023913934
0.032589504
-0.03229322
-0.023748661
-0.57655597
-0.00086776501
0.54921001
0.03274805
0.00022917612
0.032655508
-0.032553524
-0.032374597
-0.54878622
-0.0005281432
-0.66458015
0.53473749
7.2161221e-05
0.00094832186
-0.67063725
0.00092472192
0.00022196676
-0.00026469534
0.54771757
0.00029995759
-0.54764111
-0.032280201
0.03261578
0.03267581
-0.032198391
0.032720312
-0.032466233
-0.032259698
0.03263048
-0.00018957158
-0.13131465
0.00018475351
0.16392404
0.00011573676
-0.00024281742
0.16347488
0.0001398549
-0.13108027
-0.023552895
0.16517524
-0.11859523
0.00057390164
-0.13115947
0.64869978
-0.00059735406
-0.51326667
-0.02353768
-0.032757058
0.032849179
0.13028363
2.1283976
0.098731544
-0.098113506
-0.13079684
0.13106681
-0.13088684
0.098657465
-0.098189669
-2.390776
0.011651796
2.0749569
0.093417522
-0.093801045
0.12663247
-0.12650422
-2.3424431
1.7522601
-0.017766352
-2.4762327
0.0051837157
0.091050392
-0.095485141
-0.12897977
0.12419145
0.12230385
-0.47633795
-0.00079143608
-0.0026945125
-0.0020336924
-0.66454649
-0.0013430303
-0.0017121815
-0.65892995
0.0017235745
0.023304423
-0.023804824
-0.032330224
0.03187412
-0.00064162572
-0.57743862
0.48122816
-0.0057858917
-0.60473215
-0.0077143318
-0.13196337
-0.51129856
-0.024005082
0.019816588
0.64637737
0.025726322
-0.033117872
0.00075026815
-0.1321144
0.10137158
-0.099311058
0.10143459
0.13204922
-0.13202448
-0.099241391
0.023112535
0.00036013834
0.032345487
-0.032746034
-0.023574137
-0.64869684
0.16447051
0.00032119427
-0.11844237
6.7621872e-05
0.11802932
-0.0007809271
-0.00077270874
0.15597317
0.0016871449
0.00077258182
0.015302554
0.0073637742
-0.15541003
-0.15412551
-0.1424571
0.0020794967
0.0018735675
0.52718821
-0.015489609
-0.030786498
-0.57203862
-0.0018961084
0.026842884
-0.57948173
0.010417238
0.0033593012
0.0068298486
-0.15365377
-0.15631333
-0.14455741
-0.14269355
0.002780661
0.01283095
0.58123753
-0.00057117668
-0.14791975
-0.15570144
-0.14319681
0.0032048471
-0.14305431
0.030858165
-0.012754077
0.58308891
-0.61914854
-0.0018289922
0.52719491
-0.015410752
-0.57204189
0.52042751
-0.015221855
-0.64638233
0.62545848
0.009428507
-0.001872071
-0.59915133
-0.57453915
-0.57206736
-0.019594906
0.014304178
-0.0018301827
0.026770119
-0.010672165
-0.57950214
0.010350072
0.0034549024
-0.57541016
0.0043150463
0.0073160439
-0.15597762
-0.15541853
-0.15412248
-0.14245676
0.0021740711
0.0067640184
-0.14455257
-0.15631835
-0.1536637
-0.14269562
0.0028693643
0.58125766
-0.00065262096
0.0032915978
-0.14319174
-0.15570565
-0.14793127
-0.14305803
0.00032087398
0.58565486
0.0023425516
0.0032894482
0.63740847
-0.0003856828
-0.58566841
-0.57846775
0.0074010241
0.0071514797
0.0024061069
0.0031945693
-0.58127305
0.003821612
0.0037323538
-0.1563143
0.0033264015
0.0032350928
-0.14443712
-0.14442858
-0.14387835
-0.0061629676
-0.0061357765
0.00099830555
-0.14603546
0.001021598
-0.001089657
-0.022181906
-0.13198739
0.0011762407
-0.0019172564
0.0012569284
-0.13021702
-0.025913747
-0.0010031878
-0.025541034
-0.13015285
0.001126046
-0.0018347563
0.00099962865
-0.13120242
-0.025278979
-0.13071465
0.00088332786
-0.0007021735
4.7637363e-05
-0.16395891
0.0004280929
0.14365439
0.00047172981
-0.14547242
0.00021602843
0.13011926
-0.16291959
-7.7668488e-05
0.0014618143
0.00093329389
0.002152496
0.0013899343
-0.14412296
0.001092948
0.0016247217
0.00075450088
0.00056000978
-0.14525739
0.00029164809
0.033025097
-0.1637743
0.00034892102
-0.49410864
-0.032313343
0.038710303
0.032188779
-0.032584462
-0.031923446
0.031873333
-0.032339054
-0.56027471
-0.00029536009
-0.13155242
0.0003150467
-5.2778253e-05
-0.13152329
-6.4306063e-05
0.00045586677
0.00012685749
-0.00013987193
-0.16471217
-0.00019191867
-0.16517355
0.13090944
0.00010938755
-0.1634746
-6.6375427e-05
-5.8182563e-05
-1.0225171e-05
-0.14578622
0.00015519932
3.6119046e-05
0.0001900663
-0.14583934
9.9292892e-05
-0.00015923288
0.00025209801
0.1455358
-0.14558056
0.00014196522
8.6430748e-05
-0.16452242
0.13002861
9.1644242e-05
0.00019775529
-0.16215503
0.16180908
0.00040738518
5.3086654e-07
-0.00065485292
0.00034665561
0.14375774
0.0005393973
-0.14475034
0.00035835784
0.0015510288
0.0017321543
-0.1430794
0.00095888355
0.0017316582
0.00036525037
0.00040265718
-0.14375065
0.00044274021
0.03235255
-0.16196436
0.00010669607
-0.038626098
0.025941437
-0.032323776
-0.023938863
0.022204244
-0.52547959
-0.023958698
-0.0007003417
-0.49411124
0.025306307
-0.032997611
-0.032293291
0.02556278
-0.51130195
-0.023979083
0.019841333
0.025748667
-0.033097078
0.00031150795
0.032368529
0.023140338
-0.023546734
-0.032722756
0.032219213
-0.032553735
-0.031899624
0.031896214
-0.56027567
-0.032427521
-0.00028071247
0.16377642
-2.4159702e-05
-0.13155324
0.00030090594
-0.00031211061
0.1639606
-3.6892993e-05
-0.13152378
0.16447253
9.1546046e-05
-0.1184433
0.1180312
-0.00079027729
-0.00074990486
0.0016785691
0.00079208938
-0.13071666
0.00090512638
0.0018202421
-0.00067639989
3.2980609e-05
0.00043648357
0.14365662
0.00046034547
-0.14547386
0.00024401468
0.13012046
-0.16292054
-4.7394502e-05
0.0014539108
0.00096225303
0.0021396446
0.0014192481
-0.0010219275
0.001080071
-0.14412566
0.0016545875
-0.13120464
0.00099091821
0.00033502198
-0.00072787716
0.13015516
-0.00062780139
-0.161811
0.00032537392
0.001148305
0.0018968539
-0.143761
0.0015316965
0.0017620622
-0.00054560522
-0.14475244
0.00052155313
0.00038769468
-0.14525915
0.00032035879
-0.00014429796
-0.14553659
0.00028926998
0.00010830667
6.5901196e-05
-0.14578696
6.6011288e-05
-0.13090973
2.1610497e-05
0.00016688547
0.00010247256
-3.2909032e-05
-0.00046438778
0.00015585965
-0.00015397374
-0.16471281
0.00017985392
-0.14583968
0.00013119883
-0.00018992922
0.00023826763
-0.14558066
0.00017557986
7.2405555e-05
-0.16452328
0.13002909
0.00022983179
-0.16215526
6.9124281e-05
2.9966386e-05
0.00038524089
-0.14490241
0.00031079639
0.00015840254
-0.14492846
0.00027547328
0.00021868331
-0.00012640248
-0.00020498827
-0.14503256
0.00024000897
0.00019547287
-0.032261476
-0.00021187371
-0.13015872
0.00035040592
-0.49551308
-0.032610061
0.032721101
-0.031988412
0.032987492
-0.00089095342
-0.03254524
0.032931637
0.032415141
-0.031989496
-0.032326846
-0.56122083
0.023862341
-0.023446862
-0.032657751
0.033151126
-0.64952164
0.16518559
0.00044421897
-0.11846264
0.00060909937
-0.00042107143
-0.0002388336
0.13169402
3.3270244e-05
-0.16475617
-0.00014924923
2.4703056e-05
0.00037959377
-0.14596238
0.00017187642
0.00011537452
-0.00012943906
-0.14604873
0.00014390322
0.0001051575
-0.1636957
-1.7128684e-05
-0.13101663
0.00011771642
0.00023693373
0.0001062535
7.5107597e-05
-2.2875738e-05
-0.16346833
-0.00044477454
-0.16510713
0.13161247
0.00018388922
-0.00020461257
-0.16469427
0.00022076287
0.0003957571
-0.14595779
0.00012070061
0.00012684056
7.1866662e-05
9.788939e-05
-0.14586855
-0.0001709562
6.8624981e-05
0.14570761
0.00010452503
-0.14563793
0.13165492
-2.9180104e-05
-0.16454655
0.16457891
0.00019023342
0.00021317233
0.13171158
7.2893892e-05
3.5118929e-05
7.7119065e-05
-0.14569065
0.00015399775
0.00016574132
-0.14577372
0.00013412477
-0.00011028043
-0.14511417
0.00019082912
0.00016680874
-0.16225484
3.2544645e-05
-0.13014875
0.00020925439
0.00029002852
0.00016231462
-9.0902562e-05
-0.16223884
0.14506872
6.4537354e-05
0.00011261441
-0.14501493
-0.00012716633
0.00013387258
0.00015709856
0.00014059693
-0.00013084175
-0.1443708
0.00014286364
0.14436751
0.00013186234
-0.00012299675
0.14564296
0.00011097568
-0.14563494
0.16403818
0.00010277075
-0.13127896
0.00016451183
7.565639e-05
0.14560139
0.0001305211
0.00018070855
0.1455346
0.000146792
0.00022012841
-0.00013822859
0.14542778
0.00022339385
0.00015285819
0.13113698
7.9116345e-05
0.16319153
-5.6452832e-05
0.00011606893
0.13076753
-0.00050616169
0.00016227125
0.15579645
0.0015162429
0.00032211625
0.57855589
0.0072388626
0.0021224921
-0.14415966
-0.14324435
-0.15500487
0.58019308
0.0109168
0.0050049373
-0.57861561
-0.58412743
-0.57952125
0.0067460014
0.0054397779
-0.58013575
0.0041492333
0.011742609
0.0022602759
0.0064598579
-0.14500146
-0.14616471
-0.14438458
-0.14319691
-0.0071127764
0.57854712
0.0062201032
0.0010841347
-0.14489312
-0.14518586
-0.143369
-0.14303032
0.5784375
0.00086010449
-0.15518251
-0.14339753
-0.14312866
-0.15499899
0.010511727
0.0017555929
0.011863664
0.0018231656
-0.002999361
0.58328444
-0.57508307
0.0046921476
0.0019695102
0.5858097
0.004108528
-0.57788553
-0.57674134
-0.57154514
0.005917854
0.0130169
-0.5756892
0.002517596
0.0043604049
-0.0047900762
0.0028504633
-0.14373876
-0.14453659
-0.14322492
-0.14263393
0.0037110041
0.0024388637
-0.14358699
-0.14486378
-0.14405072
-0.14286154
0.0048219082
0.0015232891
-0.14339753
-0.1437757
-0.14301655
-0.14257952
0.57231878
0.0024119225
-0.14277019
-0.14339731
-0.14290917
-0.1421898
0.0042081459
0.0027587801
0.0052245966
-0.0048955099
0.57035361
0.0019061208
-0.57007266
0.0054672145
-0.011955819
-9.5995019e-05
0.58273057
-0.57360476
-0.010534861
0.57951595
-0.57752736
-0.0015863825
0.58446304
-0.002590417
-0.5776476
-0.5758566
-0.5729818
0.0079971837
0.00049463295
-0.57611765
0.010631724
0.00014025333
5.9444092e-05
0.0074862952
-0.15485164
-0.14306995
-0.14300978
-0.15474805
0.00013092887
0.0073056871
-0.15505053
-0.14318451
-0.15488609
-0.14305741
0.00027232604
0.0064408515
-0.14484544
-0.14497784
-0.14310107
-0.14292636
0.57638629
0.006766598
0.0001512733
-0.14287723
-0.14295879
-0.14488452
-0.144825
0.012278356
0.0001714773
0.57882108
0.0056872466
-0.5725401
0.00021413282
-0.56716595
0.00068694986
0.01671724
-0.56806437
0.00036982184
0.0081219664
-0.0019670216
-0.0061367851
-0.14156729
-0.14272998
0.0003119862
0.0075852217
-0.141052
-0.14250849
-0.0053413972
-0.14224999
-0.14303148
-0.14266387
-0.14163474
0.0052937304
0.00083148737
-0.14329896
-0.14349922
-0.14265643
-0.1423589
-0.14336356
-0.14239827
0.00019491704
-0.14327031
-0.14224159
-0.00026015027
0.0011162519
-0.14287459
0.0001329108
-0.0014779794
-0.00026548361
-0.0014202834
-0.14292317
0.0010498244
-0.00040133636
-0.0013445589
0.00095708392
-0.14297589
-0.00036519326
-0.0012793922
-0.14304225
0.00088797484
-0.00063532427
-0.0012354092
0.00083795848
-0.14310812
-0.00061353634
-0.0012099951
-0.14321705
0.00081826433
-0.0017621069
0.00097201371
-0.14329834
-0.0013888779
-0.0012793969
0.00094051143
-0.14308326
-0.13021936
0.0010725966
8.6447683e-05
-0.00033777417
-0.16196643
0.13198918
-1.7842569e-05
-0.0091232021
-0.14670055
0.001198967
-0.14372945
0.0012011137
0.0016097791
-0.00038099837
0.00035986697
-0.14426553
0.0005393709
-0.14375324
0.00047275526
-0.00014008646
-0.14386325
0.00032185972
0.00023903721
-0.032328157
-0.12955921
0.00016608925
0.032295853
-0.032235529
-0.59132495
-0.024070106
0.024493179
-0.024046288
-0.032202082
0.024515604
-0.12955858
0.00018757966
0.00010988162
0.00025197573
-0.16221329
0.00025884915
-0.00029372913
-0.14389261
0.14386197
0.00023862179
0.00033772668
0.14490147
-0.14492851
0.00018316176
-0.00030352388
0.00032895807
0.00012622619
7.7308014e-05
-0.00018976492
0.00035867259
0.14388348
0.00018760158
-0.14416268
5.1362459e-05
0.14508407
0.00013735015
-0.14542642
-0.032100667
0.16318882
8.8350606e-05
-0.13113537
0.0011319265
0.00012489047
0.54820064
-0.54928057
0.031952993
-0.032343546
-0.032528625
0.53245962
-0.00072520478
-0.6644818
0.00058955867
0.0022910173
-0.53598562
0.0024282013
0.00017163174
-0.0010831371
-0.67065972
-2.9608468e-05
0.54721111
-0.54770868
-0.03235151
0.031949899
0.032006321
-0.032280085
0.0002146951
-0.00045132255
-0.032622598
0.026018785
0.026116728
-0.032541001
0.00030330844
0.02591294
-0.032710443
-0.032605118
0.026031338
0.15578857
-0.13076468
0.00029973156
0.0015226088
0.0020146687
0.0072760051
-0.15500512
-0.14324271
-0.14414701
0.00713619
0.00073879024
-0.15516987
-0.15499519
-0.14338068
-0.14312387
-0.0021597967
0.57845437
0.00096859089
0.0062770378
-0.14488414
-0.14516723
-0.14334182
-0.14301082
0.58008791
0.0065213106
-0.14615475
-0.14500128
-0.14318878
-0.14436754
0.0040634338
0.011805135
0.0016910398
0.011921417
-0.57738014
-0.0017112605
0.011958739
-0.0072946906
0.00013233381
0.0064736948
-0.14305833
-0.14494592
-0.14482467
-0.14289396
-0.00019318464
-0.14316275
-0.15503124
-0.15487702
-0.14305053
0.57603851
0.0074041828
-0.14304771
-0.1548268
-0.1547349
-0.14300699
1.218149e-06
0.010550477
1.1249133e-06
-0.57621096
0.012190764
-2.1824195e-06
0.0067157015
-0.14290639
-0.14484039
-0.14479655
-0.14284752
7.1179687e-07
-0.00067454974
0.57213511
0.0061361211
-0.14227033
-0.1432727
-0.14319524
-0.14213695
-5.747364e-06
-0.0014113989
0.0054311335
0.57330367
-0.14257179
-0.14344017
-0.14324288
-0.14226942
-0.002341192
0.57492343
0.0049120673
-0.14374705
-0.14337269
-0.14253561
-0.14297332
0.57781706
0.0048761898
-0.14485178
-0.14358229
-0.14284548
-0.14402873
0.58572163
0.0029157299
0.0041794005
-0.58315966
-0.57132569
-0.57662202
0.013410254
0.0047728152
0.0018280988
-0.0024355346
-0.57208752
0.0026100722
0.0053601126
-0.57562025
0.0044744484
0.0027368387
-0.14452498
-0.14321842
-0.1437166
-0.14261661
0.0038308057
0.0022744862
-0.14271151
-0.14335557
-0.14286317
-0.14212429
0.0043414365
0.56950113
0.0017230039
-0.14292132
-0.14253576
-0.14210165
-0.14144757
0.0054877787
-0.004946985
0.0016969407
0.0055748467
-0.00023165355
0.0056711861
-1.4777145e-05
-0.5670371
0.0081128653
-7.3329139e-05
-0.14251455
-0.14124326
-0.14230336
-0.14072752
0.0076514189
-4.0697935e-05
-0.0015757706
-0.00046766553
0.0014758239
-0.1421693
0.00022236007
-0.0011216384
-0.00032649736
-0.14254413
0.00014616841
-0.0014713988
-0.14279926
-0.00021301838
8.9337736e-05
-0.0011959872
-0.00015164765
6.0944114e-05
-0.1430911
-0.0025473006
-0.00010042497
-0.1434251
3.6448888e-05
-0.0017605957
-7.048881e-05
2.2963438e-05
-0.14378689
-0.026106052
-3.77678e-05
-0.1304463
2.7275189e-06
-0.0025927439
-6.7756634e-05
-0.54458052
-0.032460661
-0.032423806
0.026093245
1.7281002e-06
-0.12885528
0.00058683009
-0.52614727
5.1783998e-06
-1.9563445
0.13323691
-0.13455907
-0.13006456
3.5197596e-05
-0.0014315019
0.1359102
-0.13395404
-0.12951491
0.13143715
4.5442269e-05
-2.477405
0.0010232883
-0.13167846
0.13346844
0.13628209
-0.13441658
-2.5391548
0.098036933
-0.096682522
-0.13037908
0.13197672
-2.6395553
-0.47511649
0.0011586608
0.00086579794
-0.0011133372
-4.8192196e-05
-0.66443853
0.52707812
0.0007771296
-0.00082401367
-0.65852366
0.0006626492
0.00062090953
-3.896387e-05
-0.5771451
4.5001093e-05
0.032478236
0.023854446
-0.023701657
-0.032267927
-0.48109065
0.0038178009
0.00045378841
-0.0036274022
-0.60446945
0.00015496864
0.023923424
-0.023738948
-0.032298117
0.032584254
-0.57653977
-0.00084018782
0.00010764973
0.54919852
0.032640214
0.032751684
-0.032548932
-0.032389835
-0.54876415
0.53182393
-0.00061622939
-0.66455037
0.00063688059
0.00079460093
-0.53471851
0.00087343236
0.00010432783
0.00088789195
-3.8939489e-05
-0.67060028
0.54762604
0.00010270347
0.032657984
0.032635155
-0.032396945
-0.032362323
-0.54726707
-0.00014413598
0.00016949981
-0.032281848
0.032614893
0.032654564
-0.032222179
0.032726466
-0.03246012
-0.032272311
0.032619383
-0.00015479234
0.16392219
-0.13131306
8.5085079e-05
0.00018704186
-0.00021702472
-0.1310799
0.00014577651
-0.023524521
-0.11859357
0.00058196626
-0.51326258
-0.023566929
-0.032782948
0.032824585
-0.00054887224
0.023832311
0.00093787644
0.033124078
-0.032683774
-0.023475146
-0.64951217
0.16518297
0.00061613392
-0.11846045
0.00041707909
-0.00026568124
-0.00041350644
0.00013439993
-0.16369457
-5.3347121e-05
-1.2671535e-06
0.14596196
-0.1460479
0.00015223967
6.937238e-05
0.13169326
-0.16475503
-0.00013594371
-5.7234764e-06
0.0003933587
0.00018118679
8.1487627e-05
-4.4426046e-05
-0.14569075
0.00021817159
0.00011762927
-0.032688576
-0.13171077
0.0002258545
-0.49551138
-0.032016163
-0.032644042
0.032235755
0.033081137
0.032896177
-0.032579766
-0.03201899
0.032385826
-0.032230415
-0.56121601
-0.00040853062
-0.13165354
0.00020371047
0.16457768
0.00017685987
-0.13161122
0.00018787042
0.00043841261
0.00015070457
-0.00019273687
-0.16469138
-0.00013341442
-0.16510272
0.13101495
7.8201706e-05
-6.0007737e-05
-0.16346468
0.00012163577
0.00020008129
-0.14595604
8.9682433e-05
0.0001279596
7.8182473e-05
6.0053322e-05
-0.14586537