/*--------------------------------*- C++ -*----------------------------------*\
  =========                 |
  \\      /  F ield         | OpenFOAM: The Open Source CFD Toolbox
   \\    /   O peration     | Website:  https://openfoam.org
    \\  /    A nd           | Version:  7
     \\/     M anipulation  |
\*---------------------------------------------------------------------------*/
FoamFile
{
    version     2.0;
    format      ascii;
    class       volScalarField;
    location    "200";
    object      k;
}
// * * * * * * * * * * * * * * * * * * * * * * * * * * * * * * * * * * * * * //

dimensions      [0 2 -2 0 0 0 0];

internalField   nonuniform List<scalar> 
25201
(
1112.4546
1117.2574
1112.4575
1117.2634
1133.9781
1109.9675
1102.3302
1136.8899
1142.6961
1161.031
1142.6894
1109.9625
1121.1729
1225.0334
1238.5491
1128.4921
1146.7178
1166.1901
1173.48
1224.7831
1187.1547
1191.0856
1178.3711
1205.7459
1203.0702
1236.0543
1210.6447
1158.2143
1164.5068
1207.9969
1203.8785
1196.7147
1254.7075
1249.4366
1240.0713
1237.5294
1199.9821
1206.6654
1245.8494
1250.5895
1210.4907
1212.5504
1210.2192
1256.9755
1252.6468
1247.9324
1213.3318
1169.657
1130.0788
1121.1664
1152.4459
1160.4033
1185.2904
1176.6801
1163.5615
1152.2333
1137.7861
1153.9928
1166.3441
1209.5381
1191.2013
1172.4584
1184.1626
1193.3844
1207.9676
1179.1505
1191.8963
1232.4704
1220.4666
1238.5313
1227.6681
1210.255
1164.2204
1175.4034
1180.4429
1235.1206
1219.5566
1215.4322
1207.7013
1201.7724
1193.0818
1181.543
1206.4647
1210.5656
1222.7155
1200.6138
1222.3289
1224.0349
1250.2938
1236.1211
1250.9983
1260.1064
1261.0063
1262.2385
1264.9071
1251.6933
1252.7372
1266.5535
1291.7888
1275.8321
1274.1428
1288.7868
1285.169
1271.4904
1269.1015
1280.6177
1304.9314
1290.392
1275.2371
1275.6536
1297.1025
1294.7982
1311.9005
1315.2473
1337.0555
1318.7761
1316.8256
1333.8446
1330.7471
1308.5098
1292.3897
1314.1759
1312.9027
1328.0902
1349.2806
1332.5261
1311.7832
1275.7625
1236.8933
1246.942
1251.7815
1253.9334
1248.611
1246.7451
1242.2414
1234.9728
1222.7414
1206.9827
1172.6153
1137.8968
1152.2554
1184.1697
1209.6077
1191.3077
1154.1888
1166.3979
1176.7017
1163.5637
1152.439
1179.1517
1207.9641
1193.3613
1220.5303
1232.4795
1191.9044
1200.1707
1160.4088
1130.1082
1164.4764
1175.4916
1227.7918
1210.4751
1200.7617
1193.5947
1181.9823
1202.3726
1208.3499
1215.6876
1240.9969
1234.8791
1222.8704
1210.6994
1237.5773
1213.9741
1223.1035
1240.8497
1237.4724
1234.6077
1272.4727
1273.8898
1301.8939
1290.1237
1288.9907
1302.8505
1301.7096
1321.5787
1308.9802
1310.4042
1325.2116
1347.2862
1330.6433
1309.7012
1272.6775
1234.9568
1260.5127
1251.759
1251.5076
1332.1737
1315.4108
1293.6372
1272.722
1269.8469
1281.4277
1261.8206
1263.5262
1286.4609
1309.8904
1305.7499
1291.0893
1313.5282
1328.8752
1349.8864
1332.9321
1334.5348
1337.4458
1314.0603
1117.1444
1112.1005
1097.3294
1158.1899
1164.4885
1210.2203
1249.5054
1203.8773
1208.0196
1210.489
1212.5525
1252.649
1256.9806
1254.7036
1250.6286
1245.8992
1206.6569
1199.9566
1196.734
1240.1125
1237.5767
1224.0401
1191.0692
1146.6393
125.35333
211.66812
293.97804
371.3666
811.79446
816.29048
377.45331
298.78172
215.21179
127.30225
128.03823
218.22705
303.12826
382.62004
821.35334
825.20332
384.43383
304.63639
219.3713
128.5017
128.72497
219.9304
305.41092
385.36358
828.54773
831.62978
386.03048
305.94801
220.31913
128.91753
129.14567
220.88468
306.76712
387.04731
834.61335
837.57081
388.17559
307.65494
221.48656
129.37436
129.63789
222.22251
308.74152
389.5414
840.5027
843.43667
390.86969
309.78129
222.919
129.88057
130.14761
223.69813
310.93954
392.33161
846.33884
849.22982
393.67935
311.99459
224.40286
130.38553
130.64661
225.18034
313.15356
395.14415
852.08818
854.90986
396.46742
314.18944
225.87125
130.87618
131.12919
226.63195
315.32327
397.89856
857.67369
860.39278
399.18517
316.33126
227.30414
131.35059
131.59581
228.04537
317.43521
400.57593
863.05431
865.67211
401.82291
318.41116
228.69517
131.80842
132.04299
229.40606
319.46919
403.15366
868.20971
870.67096
404.33865
320.39389
230.02013
132.24308
132.46323
230.68526
321.38087
405.57522
873.02666
875.28588
406.6701
322.2368
231.25449
132.64899
132.85538
231.87793
323.16082
407.82561
877.45092
879.521
408.82844
323.94393
232.39845
133.02507
133.21551
232.97257
324.79424
409.89001
881.47905
883.33693
410.78761
325.49401
233.43694
133.36682
133.53852
233.95419
326.25954
411.74173
885.06583
886.66417
412.52842
326.86943
234.35694
133.66951
133.81973
234.80438
327.52814
413.34243
888.11195
889.40912
414.03881
328.05712
235.1428
133.92804
134.03145
235.4555
328.5193
414.60626
890.52174
891.37717
415.06912
328.85279
235.66415
134.09402
905.3643
380.0082
299.91694
215.60593
127.17255
127.12369
215.44022
299.64659
379.6263
904.54251
903.29969
379.05416
299.20097
215.14414
127.02852
126.92164
214.81405
298.68147
378.37237
901.88092
900.34511
377.62466
298.08066
214.40217
126.78062
126.65129
214.01018
297.47618
376.84236
898.71586
896.97781
375.99642
296.79841
213.54717
126.49452
126.34906
213.10613
296.11993
375.1208
895.11692
893.15395
374.18517
295.37291
212.59815
126.17743
126.01833
212.11392
294.62829
373.22394
891.08146
888.91007
372.21243
293.82384
211.56941
125.83569
125.66368
211.04354
293.01478
371.16626
886.61469
884.21812
370.06399
292.14054
210.4534
125.46665
125.28039
209.88346
291.26606
368.93496
881.72677
879.14092
367.7607
290.33561
209.25617
125.07119
124.87321
208.65124
289.4078
366.5618
876.48265
873.87369
365.37975
288.46698
208.01454
124.65916
124.45527
207.39393
287.5138
364.14461
871.14635
868.36496
362.89464
286.52493
206.7279
124.23146
124.0175
206.08162
285.53409
361.61149
865.46809
862.53895
360.30499
284.50298
205.38801
123.78263
123.55977
204.72688
283.49376
359.00198
859.58704
856.61936
357.69272
282.45978
204.02966
123.31865
123.09219
203.37979
281.47231
356.42086
853.64612
850.66851
355.20664
280.508
202.72409
122.85473
122.6421
202.16442
279.66756
354.13143
847.65918
844.72952
353.30197
278.98822
201.68425
122.44143
122.27062
201.33986
278.49847
352.69262
841.68342
838.47736
352.01305
277.91352
200.89352
122.0736
121.73568
199.96676
276.61685
350.42937
834.8166
830.41595
346.76399
273.63678
197.84719
121.10796
120.55148
194.15156
268.43942
340.43937
825.25
815.47072
322.95435
252.87558
182.75356
117.33047
120.3089
194.35331
268.69866
340.7226
826.03389
830.8945
346.99459
273.82528
197.95272
120.93593
121.65951
200.1085
276.8283
350.67855
835.1413
838.64648
352.13667
278.02436
200.97427
122.01723
122.23668
201.41036
278.60244
352.81576
841.81239
844.80162
353.32831
279.0183
201.71341
122.41122
122.62286
202.20073
279.723
354.20144
847.75364
850.69536
355.20151
280.5046
202.72739
122.83287
123.07307
203.37843
281.47249
356.42501
853.63908
856.57584
357.62163
282.40334
203.99788
123.29458
123.53809
204.69709
283.45212
358.95535
859.49271
862.40181
360.18415
284.407
205.33005
123.75547
123.99367
206.03119
285.46084
361.52464
865.28857
868.15408
362.74264
286.40761
206.65794
124.2046
124.43662
207.35009
287.44881
364.06645
870.97718
873.75661
365.25565
288.37342
207.96172
124.64024
124.86494
208.63629
289.38781
366.54366
876.47864
879.1401
367.68952
290.27924
209.22598
125.06022
125.27647
209.87705
291.25773
368.93018
881.73139
884.2473
370.02002
292.10528
210.43738
125.4615
125.66616
211.05389
293.03119
371.19204
886.66572
888.98332
372.21026
293.81908
211.57292
125.83699
126.02528
212.13754
294.66447
373.27576
891.19543
893.28366
374.18969
295.37489
212.60741
126.18133
126.35858
213.13592
296.16594
375.18619
895.26609
897.14475
376.0163
296.81095
213.56248
126.50066
126.66279
214.04513
297.53122
376.92074
898.9033
900.54901
377.66546
298.10723
214.42542
126.78966
126.93784
214.85814
298.74776
378.46259
902.073
903.4818
379.12472
299.26353
215.1999
127.05155
127.17965
215.59285
299.83964
379.82988
904.73767
905.85056
380.46747
300.31909
215.88966
127.26996
127.3141
216.02314
300.52035
380.73906
906.82928
132.9148
231.73105
322.92185
407.56022
885.75145
884.70957
407.17841
322.65457
231.56328
132.86376
132.76331
231.23937
322.15075
406.52413
883.42791
882.03273
405.79903
321.56308
230.83183
132.62899
132.50405
230.44608
320.97055
405.03732
880.56976
879.02366
404.21574
320.30544
229.98606
132.3471
132.20505
229.55304
319.64273
403.36472
877.36531
875.60387
402.4512
318.90657
229.04672
132.03418
131.876
228.56304
318.16579
401.49873
873.72004
871.84615
400.53273
317.38542
228.02599
131.69425
131.52289
227.49926
316.57747
399.49086
869.77227
867.60029
398.393
315.69873
226.90005
131.32313
131.13512
226.3214
314.81521
397.25806
865.30887
862.91815
396.06447
313.86238
225.67334
130.91949
130.71636
225.05009
312.91317
394.84696
860.45676
857.93754
393.59442
311.91342
224.3702
130.48952
130.27548
223.71545
310.91663
392.31497
855.33161
852.66249
391.00083
309.87032
223.00542
130.03824
129.81467
222.32565
308.83679
389.67451
849.9447
847.1732
388.31955
307.75966
221.59531
129.56908
129.33742
220.89851
306.70135
386.96108
844.36965
841.52506
385.58152
305.60587
220.15578
129.08458
128.84589
219.45147
304.53792
384.21058
838.67491
835.81238
382.84171
303.45041
218.71253
128.58807
128.34582
218.02401
302.4093
381.50547
832.93185
830.05488
380.23763
301.39827
217.33213
128.09102
127.86327
216.7494
300.52612
379.12286
827.14462
824.31752
378.27791
299.83586
216.25972
127.64653
127.45733
215.92409
299.35812
377.67583
821.38148
818.28119
376.9532
298.74317
215.45602
127.21096
126.76653
214.5043
297.40773
375.3111
814.83469
810.80694
371.48197
294.30464
212.32537
125.9336
124.96975
209.35179
289.77191
365.68858
806.3763
812.83238
372.11665
294.79614
212.29738
124.48687
127.16942
214.9667
298.37348
377.01434
816.12457
821.19918
382.55999
303.08251
218.17878
127.94248
128.47968
219.37871
304.63462
384.41451
824.96253
828.3175
385.25958
305.32679
219.87231
128.684
128.90682
220.3239
305.9474
386.01376
831.40463
834.40921
386.93011
306.66923
220.81712
129.11197
129.36671
221.48369
307.64314
388.14574
837.36905
840.29721
389.41395
308.6364
222.15068
129.60688
129.87531
222.9159
309.77023
390.84188
843.22292
846.12188
392.20076
310.82937
223.62177
130.11684
130.37936
224.39229
311.97346
393.64062
848.98422
851.83445
394.99369
313.02783
225.09367
130.61401
130.86954
225.85556
314.16104
396.42035
854.65621
857.42222
397.73514
315.1884
226.53963
131.0959
131.34528
227.28953
316.30427
399.13963
860.14994
862.81572
400.41967
317.30512
227.95575
131.56413
131.80565
228.68505
318.38942
401.78201
865.4431
867.99796
403.01891
319.35415
229.32596
132.01499
132.24503
230.02103
320.38562
404.3107
870.48339
872.8797
405.47093
321.29234
230.62397
132.44161
132.65883
231.28161
322.26882
406.69434
875.18988
877.38332
407.76681
323.10383
231.83534
132.83892
133.03783
232.43496
323.99152
408.874
879.45856
881.41879
409.83556
324.74003
232.93141
133.19978
133.38239
233.47945
325.54986
410.84293
883.26744
885.01498
411.69616
326.21673
233.92341
133.52783
133.69676
234.43069
326.96627
412.62844
886.66877
888.2079
413.38733
327.55662
234.82204
133.82444
133.97248
235.26788
328.21443
414.20151
889.63616
890.9032
414.87807
328.72631
235.59459
134.0751
134.17347
235.88823
329.16091
415.41331
891.97738
892.78814
415.83351
329.45616
236.06919
134.22774
132.90778
231.70757
322.88451
407.50947
885.62297
884.70219
407.17088
322.64463
231.55432
132.85998
132.76237
231.23927
322.15308
406.53044
883.46886
882.11166
405.81469
321.57307
230.83727
132.63017
132.50647
230.45409
320.98353
405.05527
880.62897
879.07366
404.21845
320.30728
229.98756
132.34809
132.20588
229.55426
319.64525
403.36913
877.39669
875.64641
402.44479
318.90089
229.04294
132.03371
131.8769
228.56495
318.17084
401.50869
873.78242
871.83191
400.49477
317.35778
228.00923
131.69032
131.51867
227.48429
316.55658
399.4669
869.75076
867.58717
398.36336
315.67429
226.88328
131.31827
131.13153
226.31008
314.80021
397.24183
865.30162
862.94103
396.05824
313.85468
225.66687
130.9173
130.71661
225.05178
312.91777
394.85574
860.49995
858.03838
393.62227
311.93174
224.38069
130.49249
130.28128
223.73447
310.9471
392.3566
855.44483
852.79997
391.0507
309.90664
223.02843
130.04552
129.82393
222.35469
308.88179
389.73408
850.0905
847.36874
388.40044
307.81918
221.63315
129.58106
129.35095
220.93984
306.76428
387.04268
844.55875
841.72041
385.67418
305.67497
220.2004
129.09928
128.86129
219.4972
304.60735
384.30042
838.88319
836.00072
382.92033
303.51062
218.75243
128.60213
128.35891
218.06023
302.46379
381.57548
833.09299
830.18454
380.28926
301.4381
217.35895
128.10152
127.8736
216.77672
300.56805
379.17849
827.2905
824.43905
378.31559
299.86471
216.27932
127.65481
127.46616
215.94718
299.39299
377.72183
821.51218
818.43401
377.00161
298.7803
215.4818
127.22174
126.76907
214.51763
297.43224
375.345
814.97673
810.94286
371.48385
294.31199
212.34394
125.94487
124.86866
209.29753
289.76105
365.69053
806.7609
827.19767
341.75593
269.79235
195.16976
119.82271
120.94284
197.98003
273.74775
346.88902
831.03841
835.37629
350.76523
276.88864
200.13397
121.637
122.05332
201.06499
278.14648
352.28144
838.88825
842.05549
352.87851
278.63989
201.43065
122.24561
122.44315
201.79184
279.13384
353.47025
845.03097
847.97834
354.24906
279.74884
202.21379
122.63129
122.86316
202.8022
280.61339
355.33207
850.93336
853.87583
356.47452
281.50508
203.39846
123.08315
123.32955
204.09266
282.54253
357.79044
856.82578
859.76688
359.04089
283.51029
204.73263
123.55123
123.79086
205.43041
284.55539
360.36577
862.68494
865.57038
361.61074
285.5184
206.06576
124.00528
124.23743
206.75337
286.54884
362.91532
868.40729
871.20785
364.1358
287.4922
207.37468
124.44403
124.66797
208.04349
288.49415
365.40223
873.95386
876.64842
366.5791
289.40442
208.64295
124.86593
125.08154
209.28967
290.37327
367.80261
879.26577
881.81961
368.92255
291.23966
209.8602
125.26942
125.47512
210.47787
292.16522
370.09129
884.30999
886.70274
371.12788
292.9712
211.01057
125.65102
125.84695
211.60065
293.8571
372.24873
889.00756
891.21072
373.20559
294.60086
212.09225
126.00929
126.19257
212.64151
295.42448
374.2456
893.30735
895.29618
375.11602
296.10201
213.09002
126.34188
126.51195
213.59805
296.86251
376.07439
897.1722
898.92798
376.85156
297.46627
213.99766
126.64481
126.79803
214.45273
298.14415
377.70168
900.55317
902.03714
378.3766
298.66697
214.79805
126.91435
127.04724
215.19247
299.25163
379.10167
903.36977
904.53281
379.7036
299.70245
215.47694
127.13455
127.21493
215.71287
300.04995
380.12825
905.50595
906.31724
380.54396
300.34581
215.89649
127.27363
892.75454
415.66617
329.32508
235.98209
134.20209
134.14599
235.80739
329.04771
415.28427
891.8873
890.93982
414.81539
328.67084
235.54829
134.0583
133.96052
235.23055
328.16338
414.13936
889.62931
888.18511
413.41743
327.57659
234.82432
133.82345
133.69401
234.42336
326.95421
412.60705
886.68004
885.0287
411.76011
326.26712
233.94784
133.53394
133.38422
233.4835
325.55192
410.83524
883.26685
881.39114
409.88238
324.78136
232.95256
133.20619
133.03866
232.4345
323.98673
408.85798
879.4317
877.36744
407.82383
323.15127
231.85977
132.84616
132.66387
231.29498
322.28594
406.70795
875.21474
872.94801
405.58463
321.3811
230.67462
132.45683
132.25965
230.06488
320.44856
404.3828
870.61083
868.15516
403.16645
319.47297
229.39849
132.03778
131.82636
228.746
318.47701
401.88434
865.61798
862.98789
400.5809
317.43535
228.03675
131.59045
131.36733
227.35227
316.39355
399.24269
860.30981
857.5724
397.8928
315.31627
226.61932
131.12232
130.89086
225.91495
314.24546
396.51743
854.8037
851.98059
395.1352
313.14418
225.16622
130.6385
130.39939
224.44775
312.05301
393.73312
849.13688
846.24875
392.33066
310.93678
223.68863
130.13965
129.89376
222.96656
309.84263
390.92537
843.35699
840.43973
389.57214
308.76138
222.22702
129.63182
129.38895
221.54792
307.73609
388.25547
837.55788
834.61146
387.09275
306.80153
220.90049
129.13925
128.93209
220.40002
306.05662
386.14294
831.6305
828.55311
385.44236
305.47709
219.97006
128.71495
128.50924
219.48569
304.78604
384.59202
825.22626
821.46303
382.78468
303.25787
218.29166
127.97215
127.17992
215.17838
298.6643
377.33447
816.38664
813.00498
372.41329
295.07318
212.53137
124.61696
125.23743
211.85711
294.24957
371.65906
812.15087
816.42734
377.54763
298.86638
215.26031
127.198
127.96527
218.23101
303.13514
382.61701
821.31754
825.06534
384.46096
304.66262
219.38653
128.45893
128.69237
219.92616
305.39734
385.33077
828.35977
831.41563
386.0402
305.96075
220.32752
128.89671
129.12431
220.86857
306.73549
386.99398
834.3996
837.34556
388.1472
307.63891
221.47744
129.35822
129.62026
222.19715
308.69633
389.47196
840.26313
843.16419
390.83431
309.75652
222.90206
129.86611
130.12809
223.656
310.87026
392.23333
846.05153
848.90185
393.61811
311.948
224.37057
130.36894
130.6252
225.12445
313.06342
395.01927
851.74638
854.56733
396.38954
314.13107
225.83208
130.8596
131.11065
226.58002
315.23902
397.78108
857.34891
860.09031
399.12451
316.28575
227.27322
131.3379
131.58141
228.00306
317.36569
400.47779
862.77674
865.40742
401.78369
318.38173
228.67455
131.79996
132.03258
229.37269
319.41291
403.0729
867.97393
870.46443
404.30935
320.37679
230.01048
132.23966
132.46135
230.67793
321.36305
405.54198
872.87038
875.18321
406.70196
322.2635
231.27129
132.65302
132.85585
231.87972
323.1594
407.81707
877.36783
879.44128
408.86615
323.97358
232.416
133.0293
133.21548
232.97132
324.78958
409.87938
881.40962
883.27187
410.81639
325.51792
233.45171
133.37136
133.54277
233.96212
326.26692
411.74474
885.02472
886.67915
412.58328
326.91934
234.39306
133.68283
133.84104
234.86126
327.60368
413.42802
888.22658
889.67809
414.18737
328.19292
235.24886
133.9664
134.10559
235.67093
328.80548
414.93414
891.024
892.19444
415.6439
329.33683
235.99938
134.20546
134.24651
236.12125
329.51476
415.87848
893.00428
1180.5219
1183.5493
1180.5188
1183.54
1180.7594
1172.8066
1167.8216
1206.7868
1209.9432
1172.8131
1189.9835
1221.334
1209.9431
1216.4175
1220.8679
1207.4565
1191.0363
1218.384
1233.11
1255.4928
1218.7093
1202.926
1243.7782
1260.989
1210.6754
1187.0872
1221.5819
1237.7632
1231.1126
1247.3634
1238.1672
1259.0416
1244.1775
1266.6522
1278.3032
1292.5067
1253.4146
1256.8076
1241.4609
1230.0912
1226.0291
1271.8752
1278.488
1267.9147
1214.8917
1204.78
1189.9962
1185.3374
1238.5802
1250.0872
1257.2438
1245.8763
1235.2639
1219.8671
1169.9614
1180.5619
1180.5368
1130.062
1117.139
1112.091
1109.6747
1121.036
805.86996
364.52316
288.80981
208.67608
125.23354
126.04163
211.85904
293.58406
370.59514
810.14132
814.21151
374.56427
296.77526
214.06692
126.76269
127.21414
215.18249
298.33702
376.46865
817.73363
820.93175
377.24299
298.98329
215.66076
127.42929
127.63796
216.09983
299.59344
377.9849
823.94289
826.91268
378.84489
300.28189
216.57693
127.83533
128.08572
217.2448
301.26236
380.07377
829.86537
832.81153
381.32299
302.24175
217.90321
128.32083
128.58498
218.66181
303.36792
382.74249
835.73722
838.64564
384.07154
304.40773
219.35655
128.82224
129.0821
220.12364
305.55171
385.51851
841.52538
844.35458
386.82822
306.57792
220.80882
129.31183
129.56511
221.56673
307.70982
388.26037
847.16557
849.93438
389.53878
308.71278
222.23655
129.78743
130.03445
222.98188
309.82683
390.94764
852.65246
855.31279
392.18935
310.79895
223.62955
130.24779
130.48385
224.34255
311.86282
393.53131
857.90363
860.41434
394.70681
312.786
224.95903
130.68671
130.9138
225.64704
313.81282
396.00127
862.86132
865.2148
397.11484
314.68389
226.22688
131.10381
131.31505
226.86528
315.63393
398.30714
867.45627
869.60935
399.33233
316.43388
227.39692
131.48909
131.68374
227.98327
317.30478
400.42182
871.6346
873.55603
401.34138
318.02328
228.46155
131.84085
132.02077
229.00229
318.82578
402.34397
875.38798
877.11498
403.16099
319.46713
229.43069
132.16211
132.32891
229.93163
320.2104
404.08962
878.74264
880.26623
404.8313
320.78752
230.3147
132.45477
132.60338
230.75836
321.44049
405.6372
881.67976
882.97876
406.32208
321.96408
231.09632
132.71161
132.81936
231.41917
322.44431
406.9167
884.15146
885.19263
407.39774
322.78663
231.62987
132.88188
132.76777
231.27124
322.22235
406.65448
883.81493
882.93891
406.2982
321.95536
231.09223
132.71095
132.60722
230.76189
321.44135
405.63183
881.70784
880.31582
404.89585
320.84137
230.34389
132.46611
132.33666
229.95155
320.23929
404.12114
878.84913
877.27146
403.30805
319.57609
229.49062
132.17977
132.03636
229.05116
318.90091
402.43616
875.63716
873.84073
401.50653
318.15007
228.53486
131.86273
131.70172
228.03995
317.39073
400.52702
871.90814
869.90609
399.5135
316.57427
227.48066
131.51451
131.33877
226.93829
315.74112
398.43666
867.74852
865.47302
397.30635
314.83554
226.3209
131.13329
130.93886
225.72181
313.92093
396.12909
863.10133
860.64139
394.91247
312.94685
225.05817
130.71827
130.51065
224.42019
311.9743
393.66185
858.11869
855.52005
392.39953
310.96254
223.73051
130.2805
130.0641
223.06849
309.9539
391.10122
852.93684
850.20364
389.75485
308.88235
222.34208
129.8221
129.59423
221.64886
307.82857
388.40079
847.40214
844.56756
387.0185
306.7283
220.90236
129.34355
129.10669
220.18965
305.64619
385.62779
841.69191
838.84458
384.24887
304.54592
219.44071
128.85095
128.60897
218.7263
303.46244
382.85518
835.93765
832.98546
381.46941
302.35888
217.97487
128.34677
128.10733
217.29809
301.34105
380.16815
830.04094
827.09301
379.00722
300.40625
216.65095
127.8634
127.66491
216.15987
299.68359
378.09512
824.14633
821.14038
377.42363
299.1216
215.74432
127.46857
127.26222
215.26629
298.46724
376.63415
817.94311
814.33086
374.85753
296.98661
214.18734
126.84646
126.17333
212.04047
293.89482
371.02398
810.08012
805.07358
365.05234
289.07452
208.73191
125.41689
123.50612
202.37799
279.88511
354.17391
797.67921
808.52269
380.66827
302.15824
218.11591
131.49104
124.72014
212.5764
295.06884
372.30356
812.65034
815.53928
376.56382
298.05196
214.81048
127.2734
127.99353
218.04584
302.85351
382.25406
820.74008
824.57491
384.0536
304.33642
219.18494
128.49216
128.71322
219.78507
305.18505
385.0768
828.01208
831.15214
385.77731
305.74586
220.18732
128.90441
129.12894
220.76547
306.58643
386.82128
834.1965
837.16671
387.96858
307.48623
221.37307
129.35411
129.61261
222.10463
308.56446
389.31896
840.07424
842.97231
390.66715
309.61505
222.80538
129.85303
130.11517
223.57387
310.75427
392.09933
845.89265
848.79683
393.4551
311.8153
224.28226
130.35261
130.61382
225.06372
312.9796
394.92483
851.65828
854.48211
396.26317
314.02668
225.76144
130.8445
131.09802
226.52497
315.16364
397.69666
857.27428
860.04539
398.99966
316.18412
227.20545
131.3216
131.56919
227.95551
317.30225
400.4093
862.74027
865.37149
401.65991
318.28286
228.60974
131.78344
132.02163
229.3328
319.35979
403.01558
867.94171
870.43632
404.20235
320.29083
229.95401
132.22451
132.45063
230.64152
321.31499
405.49084
872.84457
875.14225
406.59354
322.17828
231.21623
132.63789
132.84602
231.84702
323.11583
407.77002
877.3298
879.39742
408.7641
323.8946
232.36589
133.01536
133.20703
232.94542
324.75424
409.83889
881.33735
883.18411
410.73984
325.45624
233.41151
133.35886
133.53168
233.93169
326.2257
411.69813
884.93102
886.55192
412.47585
326.83481
234.33764
133.66459
133.8222
234.81041
327.53215
413.34194
888.03296
889.37392
414.0383
328.07453
235.17
133.93969
134.08025
235.58274
328.66577
414.74739
890.53081
891.47
415.4734
329.21055
235.9268
134.18879
134.23304
236.05197
329.33679
415.60378
892.17306
132.75689
231.23222
322.16672
406.58467
883.65465
882.81785
406.22341
321.89066
231.04463
132.69491
132.58744
230.71068
321.37176
405.55101
881.6142
880.25376
404.84739
320.79725
230.31073
132.45131
132.32992
229.93818
320.22109
404.10084
878.84298
877.29907
403.30889
319.5784
229.49412
132.17998
132.04347
229.07311
318.92895
402.46793
875.665
873.85118
401.53468
318.18082
228.56197
131.87337
131.71689
228.07498
317.43554
400.57635
871.9152
869.86624
399.51426
316.58343
227.49229
131.52397
131.34158
226.9368
315.73847
398.43316
867.69527
865.42199
397.26184
314.80231
226.29894
131.12735
130.93157
225.70109
313.89298
396.09732
863.04509
860.57508
394.88706
312.92479
225.04184
130.71276
130.50745
224.41079
311.96279
393.65061
858.11278
855.56015
392.38841
310.9537
223.72444
130.27882
130.06317
223.0634
309.94657
391.0926
852.92491
850.17484
389.72787
308.86333
222.3307
129.81993
129.59096
221.63323
307.80461
388.37021
847.33966
844.4838
386.96373
306.68771
220.87687
129.33784
129.10074
220.16317
305.60679
385.579
841.60191
838.73871
384.17724
304.49206
219.40632
128.84353
128.60209
218.69234
303.41173
382.79222
835.82113
832.8856
381.40076
302.30556
217.94005
128.34066
128.10311
217.26585
301.29259
380.10816
829.93171
827.02358
378.95363
300.36377
216.62327
127.86222
127.66672
216.13442
299.64347
378.04465
824.0573
821.04846
377.36197
299.0744
215.71543
127.47234
127.27051
215.24011
298.42213
376.57568
817.8434
814.21832
374.81775
296.95786
214.17555
126.86321
126.19825
212.05351
293.89796
371.02112
810.0492
805.13107
365.12429
289.1326
208.78004
125.4417
123.64543
203.01769
280.71659
355.08453
798.02458
815.92702
326.19118
255.86027
185.11347
118.53043
127.82597
209.57598
289.76885
365.7994
805.91536
807.99738
367.02275
290.99798
210.78223
128.02387
125.06214
208.68231
288.89125
364.66172
806.12757
810.22601
370.64294
293.62077
211.8908
126.01326
126.75053
214.11967
296.86856
374.68329
814.27548
817.78537
376.47368
298.33415
215.17559
127.18954
127.43169
215.71546
299.06473
377.33816
820.9676
823.95143
377.97514
299.58012
216.08727
127.62053
127.84442
216.63037
300.35912
378.93298
826.90207
829.83927
380.05621
301.24134
217.22667
128.07148
128.33012
217.94366
302.29661
381.37833
832.77014
835.69413
382.70992
303.33664
218.63819
128.57208
128.83454
219.40032
304.4677
384.13513
838.60483
841.48633
385.48643
305.52247
220.1023
129.07146
129.32734
220.86013
306.64962
386.9075
844.33073
847.13371
388.24084
307.68797
221.54874
129.55578
129.80144
222.28186
308.77708
389.61095
849.88528
852.59682
390.89868
309.78193
222.94898
130.02122
130.26034
223.66697
310.84879
392.23918
855.23062
857.82111
393.48691
311.82108
224.31116
130.47126
130.69948
224.99651
312.83763
394.76166
860.33773
862.79855
395.93871
313.75795
225.6079
130.89962
131.11901
226.26913
314.73988
397.17064
865.16051
867.43484
398.27581
315.60168
226.84021
131.30535
131.5087
227.45164
316.50746
399.40828
869.60514
871.66022
400.42155
317.29446
227.97162
131.67812
131.8635
228.52566
318.11146
401.43637
873.58666
875.41925
402.35265
318.82136
228.99403
132.01621
132.18582
229.49891
319.56425
403.27289
877.17269
878.81748
404.07965
320.19343
229.91637
132.32275
132.4819
230.39018
320.89018
404.94254
880.36745
881.81319
405.68534
321.46747
230.77202
132.60647
132.75183
231.20449
322.09547
406.44906
883.16977
884.39479
407.18766
322.65494
231.55557
132.86112
132.91032
231.71269
322.89252
407.5064
885.43915
907.2717
380.8201
300.54993
216.02369
127.31112
127.2622
215.85839
300.27265
380.41945
906.20204
904.88248
379.83619
299.8193
215.5575
127.16321
127.05738
215.22751
299.30001
379.15396
903.46415
901.94245
378.43002
298.71621
214.8259
126.921
126.79513
214.44253
298.12252
377.65929
900.35296
898.67444
376.86049
297.47951
214.00126
126.64499
126.50549
213.57552
296.82107
376.00613
896.89246
895.08404
375.14233
296.12604
213.09956
126.34387
126.19031
212.62932
295.39866
374.19737
893.07324
890.946
373.20552
294.60772
212.09256
126.01023
125.83947
211.57003
293.80373
372.16562
888.70827
886.37718
371.08842
292.94628
210.98925
125.64482
125.46047
210.42594
292.08104
369.9704
883.94848
881.46294
368.83586
291.17846
209.81515
125.25564
125.06187
209.22394
290.27069
367.66218
878.90334
876.23937
366.49067
289.33826
208.59305
124.84987
124.64837
207.97973
288.39585
365.26923
873.62521
870.88384
364.05386
287.43065
207.32783
124.42882
124.21937
206.69402
286.45738
362.79159
868.10552
865.23551
361.51281
285.44729
206.01428
123.98961
123.77008
205.35789
284.44227
360.21222
862.29728
859.36106
358.9126
283.41504
204.66526
123.53209
123.306
204.00567
282.40863
357.61233
856.39901
853.43203
356.36248
281.41632
203.33232
123.06607
122.84319
202.71433
280.47789
355.15174
850.50187
847.51264
354.08852
279.62646
202.12799
122.61508
122.42525
201.67608
278.95496
353.23487
844.50646
841.45494
352.63305
278.45147
201.30202
122.23219
122.04393
200.88319
277.86649
351.92199
838.2305
834.72026
350.34372
276.54911
199.89582
121.6228
121.00305
197.66394
273.25588
346.28799
830.36774
826.60449
341.16062
269.28304
194.77463
119.82446
816.98141
322.51652
252.65391
182.51795
116.73753
120.45812
193.87123
267.89957
339.72087
825.49952
830.17543
346.23903
273.23726
197.5933
121.01454
121.69404
199.81099
276.36272
350.09525
834.41752
838.01601
351.71798
277.68389
200.75031
122.03792
122.24659
201.23976
278.34503
352.50003
841.2969
844.38015
353.11223
278.83483
201.58784
122.41726
122.62158
202.08837
279.55589
353.99869
847.41857
850.42307
355.04438
280.37507
202.63985
122.83099
123.07103
203.30928
281.36887
356.29723
853.40991
856.38359
357.5451
282.3373
203.95139
123.2945
123.53655
204.65497
283.38886
358.87653
859.3447
862.27556
360.15246
284.37446
205.30437
123.75548
123.98994
205.9965
285.40869
361.45881
865.15493
868.01519
362.71643
286.38
206.63562
124.20221
124.43028
207.31561
287.39704
364.00097
870.84176
873.61455
365.21578
288.33866
207.93627
124.63511
124.85727
208.60341
289.33815
366.47973
876.33139
878.96732
367.65253
290.24451
209.19914
125.05275
125.26346
209.83088
291.18784
368.83992
881.51228
884.00033
369.95224
292.04652
210.39498
125.44822
125.64773
210.99323
292.93989
371.07585
886.39782
888.67975
372.09494
293.72982
211.51361
125.81868
126.00632
212.07596
294.56946
373.15099
890.85758
892.92151
374.08742
295.29344
212.55185
126.1627
126.33445
213.06326
296.0545
375.04092
894.88137
896.74912
375.88087
296.70487
213.49166
126.47582
126.63534
213.96631
297.41153
376.7659
898.50823
900.16877
377.52086
297.99486
214.35013
126.76234
126.90914
214.78371
298.63662
378.31923
901.72353
903.17457
379.00992
299.16993
215.13441
127.025
127.15942
215.53129
299.75
379.71858
904.51828
905.72213
380.40254
300.26558
215.85236
127.26049
127.306
215.99411
300.47824
380.68819
906.73974