/*--------------------------------*- C++ -*----------------------------------*\
  =========                 |
  \\      /  F ield         | OpenFOAM: The Open Source CFD Toolbox
   \\    /   O peration     | Website:  https://openfoam.org
    \\  /    A nd           | Version:  7
     \\/     M anipulation  |
\*---------------------------------------------------------------------------*/
FoamFile
{
    version     2.0;
    format      ascii;
    class       volScalarField;
    location    "200";
    object      omega;
}
// * * * * * * * * * * * * * * * * * * * * * * * * * * * * * * * * * * * * * //

dimensions      [0 0 -1 0 0 0 0];

internalField   nonuniform List<scalar> 
25201
(
162.91909
163.30402
162.91912
163.30425
165.28087
162.1725
161.56772
165.91122
166.26628
168.40456
166.2661
162.17238
163.59051
185.51367
190.26772
164.95505
168.5788
172.41905
173.76615
185.73927
176.92618
177.72735
174.60581
180.58303
180.19166
188.41447
182.83806
171.61894
173.73402
184.06132
182.28134
179.7576
197.59035
194.6518
190.69407
190.19139
180.60453
183.13162
193.92986
196.81705
184.94931
185.9716
185.09241
199.12368
198.28075
196.7221
185.95168
173.68654
165.28321
163.59027
167.41849
168.82882
173.36239
171.18441
168.77487
167.57612
165.89247
169.08497
170.29833
179.99413
176.97869
172.56475
173.72066
174.09978
175.61033
170.59954
172.86751
181.22808
180.57228
187.13535
186.77012
183.06601
171.81875
172.68085
174.40766
191.03086
187.44572
184.99255
183.09379
180.84035
177.79836
174.94262
180.2217
180.7434
184.00611
179.23366
184.6152
185.44065
191.77573
188.34059
192.64332
195.3543
195.49309
195.18166
195.66741
191.9986
191.93941
195.65733
202.87712
198.13844
198.04937
202.40778
201.69725
197.45268
197.22913
200.68835
208.9171
203.86557
200.11421
200.06074
204.83008
204.54521
210.17754
210.74714
219.38302
212.57712
212.41983
218.78063
218.11162
209.55899
204.07322
211.68505
211.54241
217.50674
227.01039
219.25207
212.60414
200.15684
188.3991
194.0134
196.90946
198.38018
196.76579
195.4554
192.58563
189.26117
184.6366
180.25459
172.57344
165.89792
167.57683
173.71996
179.99885
176.97982
169.09541
170.3012
171.18587
168.77482
167.41822
170.59956
175.60991
174.09779
180.5781
181.22926
172.86828
174.90618
168.82938
165.28491
171.83385
172.68629
186.77879
183.07842
179.23727
177.83
174.96905
180.88074
183.13879
185.00806
191.58853
188.84085
184.01133
180.74698
187.51104
182.3036
182.48262
187.31849
187.50661
187.45709
198.74369
198.55874
208.76858
204.90597
203.71411
208.74713
209.04375
215.47483
210.55829
210.69716
216.69132
226.28473
218.46545
211.44339
198.75858
187.47882
195.3814
192.69741
191.87745
218.24023
211.79704
204.1818
197.55687
197.28178
200.74538
195.54867
195.28765
201.80691
209.67898
208.97901
203.91837
211.59235
217.56846
227.05752
219.2829
219.59192
220.37484
213.15923
163.28794
162.86957
160.71834
171.611
173.73096
185.09205
194.6595
182.27862
184.06222
184.9481
185.97228
198.28277
199.12567
197.59311
196.82378
193.93645
183.12915
180.59736
179.7553
190.69769
190.19587
185.43564
177.71763
168.56186
103938.68
32597.637
18549.48
13675.136
2316.9888
2288.6814
13441.287
18261.991
32126.894
102773.01
101942.07
31719.797
18033.672
13273.046
2254.9857
2237.6732
13216.625
17949.138
31563.004
101649.51
101583.95
31519.998
17931.521
13210.933
2228.8965
2225.5688
13224.271
17941.334
31525.694
101620
101700.74
31549.797
17959.789
13241.763
2224.8895
2225.5912
13259.268
17979.962
31577.402
101788.53
101891.81
31608.561
18000.863
13276.141
2226.9094
2228.4993
13292.673
18021.523
31638.367
101987.31
102092.58
31670.065
18042.438
13308.949
2230.1279
2231.7317
13325.033
18062.854
31699.567
102186.44
102289.44
31730.743
18083.431
13340.948
2233.259
2234.6965
13356.598
18103.365
31759.46
102380.06
102479.86
31789.807
18123.399
13372.037
2236.028
2237.2576
13387.165
18142.724
31817.603
102567.27
102663.99
31846.991
18162.048
13401.983
2238.3712
2239.3714
13416.397
18180.525
31873.607
102747.85
102840.22
31901.524
18198.777
13430.295
2240.2319
2240.9687
13443.71
18216.032
31926.421
102918.92
103005.5
31952.442
18232.909
13456.445
2241.5627
2242.0455
13468.783
18248.868
31975.525
103078.77
103160.33
31999.807
18264.461
13480.451
2242.3798
2242.5991
13491.665
18279.072
32021.044
103227.9
103303.89
32043.416
18293.235
13502.145
2242.6983
2242.7161
13512.105
18306.303
32062.496
103364.92
103433.91
32082.633
18318.827
13521.245
2242.6319
2242.4619
13529.73
18330.035
32099.111
103486.83
103546.79
32116.163
18340.346
13537.073
2242.1688
2241.7757
13543.687
18348.955
32128.546
103590.07
103631.31
32139.233
18355.954
13548.697
2241.2564
2240.7186
13552.204
18360.721
32146.566
103656.27
2028.8434
13739.644
18372.456
31962.032
102750.13
102729.64
31954.943
18367.446
13735.663
2029.5205
2030.0064
13730.453
18360.604
31945.074
102690
102645.13
31934.032
18352.51
13723.83
2030.4479
2030.8523
13716.854
18342.763
31918.077
102586.22
102531.74
31902.018
18331.552
13708.008
2031.1524
2031.402
13699.162
18319.495
31883.038
102465.93
102404.86
31864.713
18306.503
13688.83
2031.533
2031.5962
13678.612
18292.821
31843.621
102333.34
102267.3
31823.125
18278.183
13666.902
2031.52
2031.3749
13655.407
18263.037
31800.266
102192.02
102121.29
31778.425
18247.26
13642.667
2031.1034
2030.755
13630.195
18231.027
31754.205
102040.42
101963.94
31730.637
18214.012
13616.417
2030.2574
2029.658
13602.86
18196.485
31704.666
101878
101796.49
31679.422
18178.254
13588.054
2028.9034
2028.1437
13573.829
18159.953
31652.496
101708.32
101624.26
31626.478
18141.123
13558.474
2027.2282
2026.2321
13543.572
18122.081
31598.542
101532.05
101443.83
31571.4
18102.506
13527.591
2025.0739
2023.843
13511.987
18082.666
31542.296
101347.03
101255.26
31514.202
18062.459
13495.45
2022.5143
2021.1713
13479.415
18042.218
31484.518
101156.06
101063.23
31456.302
18021.879
13462.543
2019.8412
2018.719
13446.193
18001.96
31427.573
100966.67
100882.93
31402.227
17982.713
13428.958
2018.0175
2018.4554
13413.515
17966.936
31382.832
100813.06
100790.44
31382.713
17960.439
13402.538
2020.9262
2027.7684
13412.824
17984.115
31435.865
100876.2
101218.83
31602.376
18072.516
13471.455
2041.6406
2064.9104
13617.464
18270.371
31954.56
102036.89
103595.86
32462.238
18544.429
13829.199
2092.3259
2194.19
14538.947
19560.116
34272.67
104871.31
103537.82
32435.951
18527.029
13819.594
2090.9783
2062.9204
13612.97
18262.635
31935.828
101979.4
101193.71
31589.772
18066.531
13467.646
2040.0593
2026.5454
13409.358
17979.107
31425.739
100855.84
100777.67
31375.052
17956.457
13399.819
2019.9209
2017.5872
13410.721
17963.175
31376.182
100801.01
100875.15
31396.935
17979.68
13426.839
2017.3111
2018.0815
13443.774
17998.783
31422.513
100957.7
101055.34
31451.687
18018.958
13460.415
2019.2873
2020.6736
13476.9
18039.038
31479.827
101146.18
101246.37
31509.836
18059.543
13493.284
2022.0771
2023.4483
13509.461
18079.499
31537.754
101335.9
101434.07
31567.32
18099.749
13525.551
2024.744
2025.9558
13541.374
18119.329
31594.607
101521.04
101616.7
31623.471
18139.101
13557.036
2027.0629
2028.0674
13572.331
18158.081
31649.896
101700.73
101793.45
31677.831
18177.159
13587.367
2028.9527
2029.7238
13601.961
18195.344
31703.191
101874.17
101963.5
31729.975
18213.515
13616.192
2030.3654
2030.8888
13629.873
18230.642
31753.938
102040.18
102124.98
31779.151
18247.604
13643.06
2031.2805
2031.5575
13655.638
18263.398
31801.284
102196.11
102274.5
31824.693
18278.977
13667.602
2031.7098
2031.752
13679.048
18293.504
31845.235
102339.88
102414.01
31866.967
18307.734
13689.871
2031.6693
2031.4852
13699.994
18320.654
31885.309
102473.78
102541.54
31904.873
18333.278
13709.47
2031.19
2030.803
13718.239
18344.571
31921.095
102594.58
102655.86
31938.134
18355.23
13726.051
2030.3099
2029.7572
13733.135
18364.257
31950.788
102702.8
102755.08
31964.354
18372.98
13739.499
2029.1838
2028.6192
13745.376
18380.64
31974.953
102791.68
102809.29
31979.887
18383.269
13747
2027.9951
103530.29
32098.096
18346.401
13563.489
2225.1206
2225.6378
13561.528
18343.51
32092.896
103509.66
103469.35
32082.615
18336.511
13556.335
2225.9898
2226.3147
13550.222
18327.636
32067.604
103415.64
103365.65
32053.375
18317.757
13542.538
2226.5837
2226.8561
13534.938
18306.953
32035.51
103303.15
103246.45
32018.176
18295.02
13525.708
2226.9772
2227.0719
13516.685
18282.473
31998.036
103178.37
103115.27
31978.62
18268.983
13506.168
2227.0029
2226.9682
13496.074
18255.132
31956.768
103042.82
102974.34
31935.546
18240.329
13484.463
2226.7126
2226.3931
13473.022
18224.879
31911.482
102894.65
102819.55
31888.125
18208.55
13460.172
2225.887
2225.31
13447.537
18191.664
31862.09
102733.53
102652.43
31836.783
18173.964
13433.563
2224.5479
2223.7206
13419.921
18155.884
31809.146
102562
102476.62
31782.393
18137.132
13405.057
2222.7013
2221.6064
13390.564
18118.066
31753.432
102382.15
102293.11
31725.475
18098.451
13374.963
2220.3386
2219.011
13359.807
18078.631
31695.48
102195.37
102103.18
31666.566
18058.371
13343.653
2217.5251
2215.9909
13328.01
18038.001
31635.745
102002.57
101907.65
31606.105
18017.299
13311.453
2214.337
2212.6975
13295.46
17996.62
31574.792
101805.19
101709.02
31544.839
17975.692
13278.481
2211.0487
2209.6761
13261.818
17954.968
31513.946
101608.29
101520.07
31486.021
17934.461
13243.789
2208.7917
2209.3096
13226.878
17916.775
31463.089
101443.81
101413.39
31459.458
17908.042
13213.912
2212.2585
2220.5541
13223.544
17931.235
31511.118
101488.16
101836.45
31681.452
18023.232
13285.357
2236.7779
2262.7679
13443.513
18234.434
32049.806
102715.72
104455.07
32598.363
18531.854
13676.66
2291.236
2312.1975
13676.672
18541.286
32532.578
103523.49
102670.74
32145.442
18272.78
13447.902
2290.3173
2254.2036
13267.808
18025.783
31702.914
101877.96
101627.98
31556.819
17945.39
13213.748
2237.3053
2228.4694
13208.475
17927.946
31512.962
101561.91
101613.66
31522.39
17938.989
13222.389
2225.1934
2224.5511
13240.137
17957.429
31545.251
101686.78
101785.4
31575.127
17978.093
13257.693
2225.2682
2226.6186
13274.723
17998.816
31604.648
101879.55
101985.3
31636.494
18019.858
13291.256
2228.2168
2229.87
13307.585
18040.453
31666.296
102080.5
102184.01
31697.704
18061.16
13323.596
2231.4628
2233.0221
13339.564
18081.42
31726.928
102276.61
102377.47
31757.653
18101.705
13355.194
2234.4844
2235.8571
13370.718
18121.472
31786.093
102466.82
102565.27
31816.117
18141.274
13385.93
2237.1184
2238.2778
13400.903
18160.399
31843.644
102651.75
102747.15
31872.618
18179.404
13415.414
2239.3099
2240.2215
13429.575
18197.572
31898.849
102829.94
102920.73
31926.27
18215.417
13443.076
2240.9841
2241.6267
13456.171
18232.331
31950.767
102998.38
103083.89
31976.299
18248.784
13468.521
2242.1238
2242.4963
13480.302
18264.074
31998.474
103154.68
103232.58
32021.584
18278.817
13491.235
2242.7177
2242.8674
13501.743
18292.541
32041.493
103295.89
103367.12
32062.576
18305.834
13511.49
2242.8996
2242.8396
13520.827
18318.141
32080.498
103423.92
103490.16
32099.765
18330.056
13529.46
2242.6493
2242.3362
13537.504
18340.745
32115.483
103540.76
103599.74
32132.05
18350.711
13544.569
2241.8872
2241.3512
13550.849
18358.928
32144.006
103641.41
103681.48
32154.014
18365.281
13555.303
2240.7005
2240.0498
13558.061
18369.011
32159.754
103704.2
103528.41
32097.532
18346.044
13563.212
2224.9902
2225.5149
13561.32
18343.241
32092.532
103509.4
103470.54
32082.645
18336.467
13556.291
2225.9083
2226.2778
13550.353
18327.835
32068.047
103417.91
103368.51
32054.1
18318.162
13542.849
2226.5779
2226.8649
13535.244
18307.364
32036.222
103305.35
103248.38
32018.906
18295.462
13526.062
2227.0149
2227.1307
13516.951
18282.816
31998.593
103179.49
103116.57
31979.212
18269.359
13506.484
2227.1019
2227.0128
13496.119
18255.208
31956.878
103041.92
102973.08
31935.39
18240.251
13484.428
2226.754
2226.425
13472.86
18224.661
31911.136
102892.92
102818.2
31887.786
18208.336
13460.028
2225.9224
2225.346
13447.412
18191.493
31861.848
102732.68
102652.55
31836.772
18173.939
13433.553
2224.5932
2223.8083
13420.052
18156.049
31809.439
102563.18
102478.92
31783.035
18137.532
13405.378
2222.8125
2221.7347
13391.009
18118.636
31754.333
102385.04
102296.78
31726.6
18099.196
13375.557
2220.4894
2219.2157
13360.579
18079.587
31696.92
102200.09
102108.52
31668.256
18059.514
13344.576
2217.7573
2216.2442
13329.06
18039.28
31637.623
102008.4
101913.77
31608.12
18018.686
13312.588
2214.6337
2212.9987
13296.566
17997.971
31576.727
101810.74
101714.21
31546.693
17976.998
13279.559
2211.3451
2209.9482
13262.758
17956.1
31515.536
101612.48
101524.32
31487.497
17935.519
13244.681
2209.065
2209.5413
13227.649
17917.707
31464.434
101447.63
101418.29
31460.651
17908.916
13214.683
2212.4718
2220.727
13224.393
17932.237
31512.767
101495.75
101844.55
31684.596
18025.203
13286.951
2236.9364
2262.7509
13445.352
18236.748
32055.484
102735.57
104434.47
32606.828
18539.37
13683.03
2291.0261
2088.2484
13834.331
18538.219
32415.889
103421.17
101991.88
31964.783
18277.344
13622.742
2064.4457
2040.1365
13467.7
18065.959
31586.276
101169.6
100858.48
31425.691
17979.046
13409.361
2026.6395
2020.1375
13400.63
17957.054
31374.871
100775.05
100811.78
31379.127
17964.875
13412.022
2017.8826
2017.6729
13428.391
17981.333
31398.675
100877.81
100970.02
31426.295
18000.998
13445.426
2018.4557
2019.6721
13462.267
18021.023
31454.003
101059.48
101160.62
31484.162
18041.648
13478.895
2021.0464
2022.4412
13495.275
18061.749
31512.348
101251.82
101350.49
31541.984
18082.004
13511.352
2023.7653
2025.0276
13527.323
18101.703
31569.484
101438.83
101534.54
31598.35
18121.462
13542.949
2026.1769
2027.2457
13558.418
18140.584
31624.982
101619.77
101712.17
31652.891
18159.654
13573.43
2028.187
2029.0353
13588.241
18178.029
31678.481
101793.93
101883.06
31705.299
18196.278
13602.536
2029.744
2030.3679
13616.54
18213.722
31729.651
101960.89
102046.03
31755.151
18230.962
13629.958
2030.868
2031.2607
13642.998
18247.314
31778.023
102119.02
102200.06
31802.139
18263.505
13655.544
2031.5352
2031.7044
13667.508
18278.605
31823.326
102267.25
102342.64
31845.789
18293.445
13678.86
2031.7415
2031.6591
13689.432
18306.914
31864.83
102403.91
102473.49
31884.857
18319.954
13699.29
2031.447
2031.1358
13708.357
18331.595
31901.402
102527.82
102590.49
31919.032
18342.762
13716.626
2030.7113
2030.2053
13724.006
18352.305
31932.827
102638.38
102693.49
31946.469
18360.903
13730.35
2029.6206
2029.0634
13736.375
18368.383
31956.247
102730.18
102764.14
31966.901
18375.642
13741.806
2028.4818
2027.9313
13745.674
18380.781
31974.799
102789.16
2240.7545
13557.773
18368.268
32158.192
103695.72
103672.95
32152.144
18364.325
13554.929
2241.2835
2241.7929
13550.339
18357.907
32142.001
103637.45
103598.1
32131.228
18350.203
13544.197
2242.1149
2242.4278
13538.165
18341.352
32116.174
103544.01
103493.23
32100.904
18330.897
13530.083
2242.605
2242.7405
13522.192
18319.669
32082.464
103430.67
103372.16
32064.439
18307.196
13512.503
2242.7105
2242.6605
13503.16
18294.192
32043.606
103302.48
103236.66
32023.272
18280.064
13492.122
2242.4513
2242.2086
13481.494
18265.489
32000.266
103160.74
103088.4
31977.793
18249.851
13469.213
2241.7982
2241.34
13457.4
18233.853
31952.83
103006.18
102927.71
31928.414
18216.861
13444.015
2240.7341
2240.0425
13431.067
18199.511
31901.574
102839.66
102755.75
31875.329
18181.235
13416.637
2239.1456
2238.1701
13402.612
18162.616
31846.756
102662.38
102574.1
31818.999
18143.261
13387.291
2237.008
2235.7876
13372.498
18123.749
31789.228
102477.3
102385.91
31760.472
18103.679
13356.564
2234.4027
2232.9724
13341.244
18083.571
31729.854
102286.31
102191.98
31700.321
18063.008
13324.876
2231.3964
2229.7999
13309.145
18042.456
31668.999
102089.53
101992.59
31638.84
18021.523
13292.395
2228.1151
2226.5373
13276.336
18000.833
31607.368
101889.42
101794.23
31577.71
17979.909
13258.966
2225.1972
2224.5008
13241.776
17959.518
31548.106
101697.68
101623.93
31524.886
17940.759
13223.631
2225.1091
2228.4034
13210.099
17930.076
31515.991
101574.93
101642.04
31558.714
17946.775
13214.654
2237.1296
2254.2249
13270.654
18030.065
31710.341
101899.37
102715
32146.832
18274.349
13449.182
2289.8425
2313.7646
13689.165
18559.715
32570.488
103701.71
103842.45
32563.055
18534.674
13665.957
2315.2978
2287.4466
13439.53
18258.738
32117.087
102725.54
101916.77
31712.463
18030.717
13271.277
2253.8176
2236.6451
13214.984
17946.677
31557.918
101635.2
101572.1
31514.621
17928.586
13208.777
2227.9476
2224.7609
13222.512
17938.902
31521.412
101612.09
101692.33
31545.556
17957.242
13239.802
2224.1575
2224.9342
13257.635
17977.802
31573.863
101782.12
101884.78
31605.118
17998.696
13274.442
2226.2982
2227.9279
13291.235
18019.597
31635.295
101981.59
102084.95
31666.776
18040.318
13307.278
2229.5814
2231.2101
13323.634
18060.972
31696.611
102179.97
102281.05
31727.583
18081.406
13339.358
2232.772
2234.2734
13355.393
18101.731
31756.853
102373.6
102472.69
31787.272
18121.79
13370.787
2235.6543
2236.9485
13386.336
18141.553
31815.69
102562.43
102658.63
31845.16
18160.917
13401.113
2238.1021
2239.1489
13415.964
18179.859
31872.453
102745.07
102837.09
31900.55
18198.191
13429.832
2240.031
2240.7931
13443.76
18216.069
31926.4
102919.23
103007.23
31952.976
18233.249
13456.663
2241.3862
2241.8582
13469.435
18249.709
31976.845
103083.68
103164.66
32001.219
18265.309
13481.022
2242.1627
2242.3708
13492.601
18280.312
32023.03
103234.38
103309.22
32045.348
18294.427
13502.981
2242.4709
2242.5181
13513.361
18307.944
32065.026
103372.28
103441.12
32085.449
18320.69
13522.642
2242.4638
2242.3539
13531.764
18332.667
32102.981
103497.31
103559.94
32121.108
18343.696
13539.638
2242.1249
2241.8133
13547.115
18353.579
32135.65
103609.14
103663.45
32149.951
18362.137
13553.089
2241.4258
2241.0119
13558.243
18369.177
32160.288
103702.04
103717.18
32163.408
18370.678
13558.952
2240.2889
171.29318
171.47293
171.29313
171.47261
170.89416
170.03561
169.73094
174.5703
174.67166
170.03575
171.86643
175.71722
174.67169
175.33984
175.53903
173.93256
171.94336
176.30025
177.87255
182.49456
175.73247
173.9252
181.79971
187.57734
175.73694
171.9138
176.09994
178.50627
177.07253
179.00929
177.69532
180.52257
178.82657
183.20393
184.08848
188.37203
180.27449
181.25856
179.57623
178.64032
177.38916
187.79098
191.22238
191.2623
177.05184
176.41102
174.9034
173.36611
187.13877
187.41272
191.33113
191.24719
191.04195
187.46708
173.70589
174.41526
174.40969
165.27557
163.28713
162.86838
162.12615
163.56562
2284.0334
13650.404
18491.11
32530.161
104317.84
102696.05
32041.539
18227.233
13439.528
2261.3902
2237.5436
13287.216
18024.866
31685.91
101822.52
101487.72
31518.261
17933.788
13225.245
2221.7658
2213.4716
13215.126
17909.521
31462.814
101401.9
101440.31
31466.881
17917.87
13227.388
2210.3849
2209.8132
13244.442
17935.108
31487.264
101508.83
101606.15
31516.316
17955.544
13262.055
2210.5543
2211.8673
13278.933
17975.936
31545.042
101699.01
101803.94
31576.297
17996.796
13295.434
2213.4117
2215.0124
13311.631
18017.165
31605.558
101898.23
102001.56
31636.53
18037.761
13327.677
2216.5763
2218.0605
13343.48
18057.774
31665.206
102092.96
102193.75
31695.629
18078.009
13359.181
2219.4788
2220.7968
13374.548
18097.549
31723.605
102282.28
102380.62
31753.26
18117.227
13389.769
2222.0123
2223.1078
13404.473
18135.977
31780.124
102465.67
102559.72
31808.483
18154.694
13418.84
2224.0764
2224.9161
13432.722
18172.506
31834.066
102640.64
102731.17
31861.099
18190.209
13446.229
2225.6375
2226.2218
13459.048
18206.731
31884.92
102807.07
102891.29
31909.929
18222.95
13471.288
2226.6613
2226.9863
13482.905
18238.009
31931.683
102960.81
103038.41
31954.593
18252.719
13493.889
2227.178
2227.2871
13504.332
18266.341
31974.296
103101.2
103172.89
31995.349
18279.709
13514.215
2227.296
2227.2139
13523.554
18291.988
32013.156
103229.4
103295.9
32032.437
18304.043
13532.393
2227.0351
2226.7583
13540.56
18314.796
32048.093
103346.29
103405.6
32064.838
18325.037
13547.92
2226.3793
2225.9244
13554.622
18333.729
32077.336
103449.02
103492.11
32088.49
18340.863
13559.712
2225.391
2224.853
13562.725
18344.95
32094.831
103517.24
103472.21
32080.55
18335.32
13555.349
2225.2245
2225.7882
13552.55
18331.447
32074.323
103449.17
103407.66
32063.303
18323.78
13546.776
2226.162
2226.5362
13540.75
18315.087
32048.75
103351.54
103300.05
32033.874
18304.919
13532.904
2226.7684
2226.9876
13525.243
18293.969
32015.832
103237.73
103180.66
31998.568
18282.005
13515.943
2227.0987
2227.1594
13506.852
18269.366
31978.326
103111.61
103047.31
31958.578
18255.654
13496.154
2227.0388
2226.9037
13485.602
18241.208
31935.829
102972.49
102902.01
31913.581
18225.68
13473.41
2226.5408
2226.1286
13461.506
18209.685
31888.819
102819.76
102741.8
31864.853
18192.894
13448.224
2225.5362
2224.8776
13435.184
18175.527
31838.171
102653.6
102570.58
31812.279
18157.392
13420.815
2224.0316
2223.1203
13406.927
18138.996
31784.233
102478.75
102392.45
31757.247
18120.038
13391.835
2222.0741
2220.9186
13377.088
18100.695
31727.917
102296.07
102205.35
31699.645
18080.861
13361.296
2219.5814
2218.1943
13345.937
18060.803
31669.301
102105.6
102011.34
31640.116
18040.354
13329.596
2216.6478
2215.1395
13313.906
18019.945
31609.261
101909.64
101813.44
31579.732
17999.277
13297.271
2213.5114
2211.9668
13281.027
17978.54
31548.503
101709.32
101614.75
31519.483
17957.825
13263.719
2210.6123
2209.9022
13246.559
17937.719
31490.808
101520.08
101451.31
31470.447
17920.328
13229.162
2210.4633
2213.6604
13217.318
17912.384
31467.043
101418.07
101507.9
31523.045
17936.52
13226.857
2222.1388
2238.8895
13290.229
18030.468
31696.868
101860.1
102771.3
32060.993
18235.512
13442.334
2264.5664
2293.3471
13675.237
18537.961
32612.082
104483.42
106525.72
33662.619
19129.473
14117.632
2357.6515
2299.5114
13420.963
18325.818
32538.817
107724.36
103403.25
32463.95
18504.637
13648.846
2302.633
2288.2352
13440.052
18261.18
32129.441
102656.67
101888.32
31703.396
18024.205
13266.68
2253.7535
2237.7326
13214.527
17946.509
31560.418
101632
101573.76
31517.557
17929.221
13209.068
2229.0147
2225.7786
13222.979
17939.873
31524.652
101612.82
101693.52
31548.436
17958.286
13240.469
2225.0695
2225.7165
13257.916
17978.325
31575.686
101780.39
101881.8
31606.252
17998.944
13274.569
2226.9463
2228.4803
13291.052
18019.444
31635.66
101976.43
102079.81
31666.85
18040.087
13307.081
2230.103
2231.7066
13323.194
18060.507
31696.278
102173.47
102276.54
31727.436
18081.137
13339.17
2233.2394
2234.6957
13354.928
18101.166
31756.229
102367.64
102467.73
31786.655
18121.272
13370.414
2236.0528
2237.3244
13385.684
18140.775
31814.702
102556.11
102653.96
31844.371
18160.299
13400.662
2238.4605
2239.4787
13415.214
18178.977
31871.29
102738.78
102833.11
31899.73
18197.562
13429.365
2240.3622
2241.1204
13442.997
18215.173
31925.23
102913.7
103003.38
31952.05
18232.525
13456.102
2241.738
2242.2225
13468.531
18248.663
31975.482
103077.83
103160.34
31999.999
18264.371
13480.263
2242.5609
2242.7736
13491.391
18278.915
32021.152
103227.59
103303.29
32043.471
18293.045
13501.845
2242.8496
2242.8229
13511.663
18305.934
32062.241
103363.31
103431.46
32082.089
18318.313
13520.672
2242.6786
2242.4301
13529.162
18329.571
32098.537
103483.96
103546.04
32116.287
18340.415
13536.958
2242.0697
2241.6206
13544.105
18349.906
32130.289
103592.56
103648.03
32144.687
18358.277
13549.887
2241.0573
2240.4422
13554.357
18363.85
32152.246
103690.92
103708.63
32144.615
18362.424
13554.23
2239.7531
103468.51
32080.6
18335.235
13555.215
2225.1109
2225.7194
13552.683
18331.633
32074.565
103443.65
103400.64
32063.172
18323.896
13546.931
2226.1145
2226.4427
13540.503
18314.547
32047.452
103346.16
103297.31
32032.372
18304.075
13532.366
2226.6642
2226.8698
13524.508
18293.014
32014.449
103237.04
103181.92
31997.4
18281.1
13515.197
2226.9787
2227.0243
13505.925
18268.334
31977.074
103113.58
103050.7
31957.571
18254.69
13495.252
2226.9215
2226.8217
13484.942
18240.74
31935.767
102973.65
102900.87
31914.057
18225.723
13473.218
2226.5454
2226.1709
13461.4
18209.775
31889.063
102815.65
102737.71
31864.092
18192.525
13447.936
2225.5526
2224.8571
13434.81
18175.025
31837.307
102650.62
102568.82
31811.711
18157.012
13420.524
2224.0587
2223.1883
13406.697
18138.751
31783.947
102477.82
102391.92
31757.164
18119.933
13391.747
2222.1432
2220.9844
13376.974
18100.587
31727.837
102295.12
102203.97
31699.488
18080.722
13361.183
2219.6429
2218.2367
13345.676
18060.513
31668.949
102103.25
102008.96
31639.667
18039.994
13329.303
2216.6888
2215.1788
13313.488
18019.475
31608.714
101906.69
101810.72
31579.211
17998.799
13296.867
2213.5585
2212.0269
13280.599
17978.08
31548.105
101706.89
101613.07
31519.258
17957.449
13263.368
2210.6819
2210.0231
13246.311
17937.511
31490.94
101519.64
101452.17
31470.819
17920.244
13229.026
2210.5927
2213.7651
13217.241
17912.431
31467.802
101420.1
101512.28
31523.425
17936.304
13226.633
2222.1188
2238.5279
13289.395
18029.373
31696.015
101867.51
102776.45
32056.547
18232.149
13439.773
2263.6772
2291.699
13669.025
18530.144
32599.673
104463.08
106507.98
33586.116
19080.718
14081.526
2350.0477
2169.6135
14368.063
19318.802
33895.666
104976.87
106910.14
32906.022
18655.119
13772.694
2329.3134
2306.3729
13766.141
18652.816
32947.366
107317.76
104276.2
32553.41
18508.057
13662.394
2286.0447
2261.6035
13440.612
18228.454
32042.753
102701.86
101825.91
31688.89
18026.87
13288.573
2237.4547
2221.3078
13224.887
17932.885
31515.23
101481.64
101404.47
31462.41
17909.322
13214.96
2213.0617
2210.0254
13227.21
17917.317
31464.775
101433.89
101512.62
31487.341
17935
13244.299
2209.4995
2210.2702
13261.918
17955.103
31514.643
101600.47
101702.71
31545.299
17975.821
13278.714
2211.5949
2213.1714
13295.382
17996.506
31574.962
101798.74
101903.11
31606.258
18017.286
13311.596
2214.7854
2216.3758
13327.79
18037.703
31635.597
101997.35
102099.19
31666.33
18058.112
13343.612
2217.8807
2219.3055
13359.345
18077.995
31694.81
102190.1
102287.86
31724.508
18097.716
13374.555
2220.6143
2221.8362
13389.753
18117
31752.103
102375.44
102470.68
31780.994
18136.117
13404.442
2222.9337
2223.9297
13418.948
18154.58
31807.453
102554.79
102645.77
31835.01
18172.698
13432.752
2224.786
2225.5355
13446.394
18190.187
31860.159
102725.68
102813.22
31886.396
18207.288
13459.348
2226.1389
2226.6205
13471.887
18223.438
31909.701
102887.75
102968.99
31933.872
18239.02
13483.554
2226.9559
2227.181
13494.85
18253.635
31955.005
103036.95
103111.15
31976.981
18267.644
13505.21
2227.271
2227.301
13515.348
18280.814
31996.043
103172.45
103240.29
32016.018
18293.403
13524.547
2227.2303
2227.0891
13533.609
18305.27
32033.213
103295.24
103358.75
32051.659
18316.719
13541.917
2226.8495
2226.5366
13549.862
18327.15
32066.876
103408.5
103466.23
32082.672
18336.62
13556.517
2226.1299
2225.6488
13561.96
18343.93
32093.313
103509.65
103529.25
32097.588
18346.169
13563.28
2225.0301
2028.6
13747.117
18382.539
31977.653
102803.47
102782.2
31972.449
18379.14
13744.616
2029.2742
2029.7903
13739.639
18372.508
31962.166
102740.4
102695.88
31949.842
18363.757
13732.594
2030.2027
2030.5972
13725.477
18353.849
31933.835
102639.18
102587.1
31918.292
18342.813
13716.678
2030.9122
2031.2194
13708.255
18331.312
31900.261
102525.43
102468.34
31882.947
18318.902
13698.324
2031.4129
2031.6251
13688.867
18306.153
31863.321
102402.32
102339.43
31844.195
18292.426
13677.859
2031.6662
2031.6334
13667.033
18278.043
31822.298
102265.6
102195.41
31800.847
18262.658
13654.667
2031.4459
2031.1744
13642.513
18246.7
31776.838
102115.31
102039.25
31753.4
18229.859
13628.92
2030.7395
2030.2377
13615.705
18212.677
31727.826
101954.77
101874.73
31703.03
18194.794
13601.201
2029.5825
2028.8343
13587.276
18176.785
31676.413
101787.23
101704.06
31650.639
18158.147
13572.071
2027.999
2027.0714
13557.467
18139.404
31623.08
101613.45
101527.08
31596.406
18120.12
13541.707
2026.0147
2024.8678
13526.403
18100.611
31567.762
101432.4
101341.91
31539.968
18080.596
13510.041
2023.5813
2022.2643
13494.212
18060.499
31510.449
101243.87
101150.86
31482.051
18040.103
13477.451
2020.8755
2019.5528
13461.396
18019.974
31452.53
101052.41
100961.71
31425.016
17999.901
13444.314
2018.4243
2017.7555
13427.74
17980.679
31398.05
100871.01
100804.15
31378.873
17964.204
13411.187
2018.0904
2020.4898
13400.353
17956.96
31375.624
100768.82
100852.01
31427.754
17979.335
13409.229
2027.1322
2040.2391
13466.875
18064.763
31585.221
101151.8
101964.56
31956.127
18270.486
13617.699
2064.0013
2085.675
13813.637
18508.577
32362.974
103239.76
2169.9105
14476.184
19455.721
34044.098
104182.91
103406.16
32395.766
18506.586
13805.51
2083.4915
2061.181
13609.683
18257.03
31930.021
101963.97
101199.35
31596.566
18068.672
13469.305
2040.561
2027.5164
13411.562
17982.419
31434.034
100863.41
100781.64
31381.428
17959.074
13401.475
2020.8838
2018.4601
13412.107
17965.281
31381.122
100803.43
100874.53
31400.485
17981.182
13427.775
2018.0709
2018.7468
13444.673
18000.131
31425.442
100956.87
101054.47
31454.177
18020.185
13461.269
2019.8669
2021.1822
13477.804
18040.224
31482.048
101146.09
101245.71
31511.584
18060.484
13493.978
2022.5163
2023.8233
13510.158
18080.348
31539.269
101335.87
101432.48
31568.25
18100.238
13525.911
2025.0336
2026.1942
13541.738
18119.737
31595.368
101520.02
101614.07
31623.703
18139.153
13557.047
2027.2453
2028.212
13572.336
18158.075
31650.02
101698.6
101790.28
31677.54
18176.85
13587.091
2029.0537
2029.7816
13601.585
18194.848
31702.625
101871.05
101958.02
31728.7
18212.522
13615.35
2030.3618
2030.8566
13628.904
18229.433
31752.345
102034.42
102116.92
31776.891
18245.92
13641.637
2031.2144
2031.4672
13654.08
18261.554
31798.827
102187.81
102265.56
31821.744
18276.799
13665.774
2031.5982
2031.6393
13677.063
18291.04
31841.784
102330.71
102402.17
31862.795
18304.854
13687.532
2031.573
2031.4324
13697.722
18317.796
31881.048
102461.24
102527.64
31900.422
18330.39
13707.196
2031.1947
2030.8924
13716.296
18341.994
31916.831
102580.65
102641.46
31934.416
18353.233
13724.632
2030.5021
2030.0555
13732.56
18363.389
31948.897
102689.41
102744.67
31963.88
18372.658
13739.228
2029.5173
2028.9129
13744.643
18379.8
31973.95
102786.09
102804.6
31978.089
18382.053
13746.066
2028.2035
103705.07
32159.66
18368.126
13556.957
2240.3579