/*--------------------------------*- C++ -*----------------------------------*\
  =========                 |
  \\      /  F ield         | OpenFOAM: The Open Source CFD Toolbox
   \\    /   O peration     | Website:  https://openfoam.org
    \\  /    A nd           | Version:  7
     \\/     M anipulation  |
\*---------------------------------------------------------------------------*/
FoamFile
{
    version     2.0;
    format      ascii;
    class       surfaceScalarField;
    location    "200";
    object      phi;
}
// * * * * * * * * * * * * * * * * * * * * * * * * * * * * * * * * * * * * * //

dimensions      [1 0 -1 0 0 0 0];

internalField   nonuniform List<scalar> 
76009
(
0.0019149833
1.478741
-1.4800799
-2.0325009
2.0330533
-36.228357
2.0781893
-2.0795733
-2.0789759
2.0769032
-34.81021
3.1249241e-05
0.0018355143
2.0330742
1.4787878
-1.480048
-2.0324769
-36.228298
2.0769926
2.0782315
-2.0795195
-2.0788728
6.5080457e-05
-34.810044
-0.0028040954
-9.3253927
-0.0027628689
-0.3831397
0.37473826
0.36797991
-0.39128475
0.36798259
0.37475201
-0.38313812
-0.39129053
-0.012575064
-7.6963472
0.066382622
-7.4068776
0.012616905
-0.012520501
-0.012503421
-10.341981
0.0057597769
-0.054718109
-9.6923864
-0.0057424742
0.38348959
0.3787931
-0.37528234
-0.3800678
0.38348722
-0.38007169
-0.37528897
0.37878584
-9.3277355
7.6963691
-0.05471826
-9.6923977
0.066416563
0.3706029
-0.37687664
0.52391909
-0.53758208
-8.2568603
-0.0018223032
-0.000181119
-0.57872278
-0.020097101
0.023889847
-0.024988285
0.032513466
-0.00037499532
-0.56506006
0.032710764
-0.02522819
-0.02535743
0.032589325
-0.01115553
-0.0079342402
-2.4811764
0.098723882
0.13262198
-0.1292702
-0.096216585
0.0034575005
-2.6370299
0.094952304
-0.092243155
-0.12672315
0.12817896
-0.13062879
-2.3430459
0.0024014425
-0.47569416
0.0019437375
-0.0015079117
-0.0013208088
0.00057871471
-0.57558763
-0.031946335
-0.023529245
0.02374441
0.032297388
-0.52711239
0.0015537406
-0.00061520544
0.00037357028
-0.65451256
-0.0016283854
-0.00049618393
-0.66427293
0.48071589
-0.62377829
0.0096623765
0.0061806928
0.00460942
-0.13143111
-0.51110932
-0.023287999
0.023541206
0.032664462
-0.032793907
-0.0018463091
-0.13257581
-0.10191496
0.097914372
-0.10191521
-0.13257326
-2.3809615
0.0019843818
0.13641752
0.13352284
-0.1311404
-0.13382547
-2.5354071
0.13595824
-0.1334728
-0.12915895
0.13143375
-2.4762598
9.8153552e-06
-2.3912409e-05
0.001464234
-0.5336544
-0.0006887043
-0.00075004801
0.0015156943
-0.53504086
0.0014916266
-0.53176379
0.00014865624
-0.54565099
-8.8330325e-05
0.032258225
0.032310783
-0.031984671
-0.031986479
7.7221047e-05
-0.54644074
0.032350372
-0.031970916
-0.031998911
0.032302915
-0.54756969
-0.032142092
0.032512181
0.032342613
-0.031976856
0.0029292734
-0.00036270769
0.00017446031
0.032714165
0.032594621
-0.025350087
-0.025222881
-0.56504654
-0.00060426491
-0.65899709
-0.0030647147
-0.0001668689
-0.66623901
-0.00018055535
0.032601176
0.03255459
-0.025435083
-0.025356442
-0.56405185
0.0031413123
-4.303709e-05
-0.02542966
0.032560462
0.032514658
-0.025431508
-0.56314377
0.00054655605
-0.66469931
0.52529999
-0.0031678163
-0.65074792
3.344139e-06
0.0014206294
2.6604742e-06
-0.54382049
3.111798e-06
-0.031963854
0.032248718
0.032220444
-0.031953786
-0.56121608
3.911854e-06
-0.025408168
0.032504392
0.032479175
-0.025394566
0.0047578127
5.3845778e-05
-0.57252544
3.9153291e-06
0.0064937784
-0.12865262
0.00066812387
-0.51800924
3.6306098e-06
-0.50007533
0.0024802748
-2.0270701
-0.10840131
0.13306084
-0.10491874
1.1954735e-05
0.0018118007
-7.7910655
0.51957826
-0.54585228
-0.52583536
2.5809856e-05
-8.2568102
-0.37685821
0.3706208
0.52394016
-0.53755251
0.0124875
0.54784362
0.38621738
-0.37551631
-0.52874586
-10.433334
0.5532809
2.9477455e-05
-0.53174615
-0.51384624
0.53652471
-9.9016934
-0.0068887954
0.020341068
2.6816629
-2.1402974
-0.0015368641
-0.013388596
2.6567047
-2.1177893
0.015428053
2.6260914
0.0064815796
-1.8762546
1.8142619
0.021714874
0.030116686
0.042650459
0.035794117
-2.1038898
-0.085025188
-0.0030577977
0.1297391
0.096546173
-0.10475173
0.040322764
-0.0033455651
0.63394434
0.021548394
-2.3269949
-0.0074898227
0.61581064
0.5395343
0.62217521
0.077637533
-0.09809104
-0.13421482
0.096462878
0.084360711
0.47530766
-0.004535891
-0.0062133325
-2.0378495
0.094749596
0.1257278
-0.11884759
0.081308577
-2.1869798
-0.19048933
-1.949544
0.0027737312
0.14506511
-0.0049268052
0.0010937183
-0.14278045
-2.1782128
-0.0065886136
-2.6301769
0.005161365
-0.0023991832
-2.6558859
2.3145159
0.09594378
0.13060669
-0.12956588
-0.095136834
0.00048533549
-2.3105939
0.0015386513
0.13181839
0.096405423
-0.094783951
-0.12925566
2.2166127
-2.2006714
2.6194213e-05
-0.12991725
0.1327924
0.13216348
-0.12912641
0.62865688
-0.064415198
-0.0018451947
0.63342958
0.54556806
0.5423363
0.098745742
-0.13605628
-0.13523665
0.097939681
0.10544944
-0.0018833728
0.52332485
0.0054813436
-0.0037153838
-2.0662401
-0.10885293
0.13346505
0.13067103
0.001809794
0.06182168
1.0960984e-05
-2.6129283
0.63254071
0.54166661
0.53933333
0.61786268
1.37526e-05
0.097944561
-0.13493108
-0.13475597
0.097643124
-2.1973412
0.0010959156
-0.0040647262
0.52637078
0.00073742938
0.52777673
-0.0039875334
-0.00028337252
-0.0045934574
-0.00012040405
-0.00085005092
-0.0044345336
-0.0023569312
-0.51999286
-0.0032737274
-2.6426553e-05
-0.51584071
0.0098488439
0.0079149438
-0.003103706
-0.020309845
0.0033013716
0.57485444
-0.037909871
-0.0038153413
0.57871173
0.0033262321
-0.0006084084
0.023892806
-0.020093448
-0.024983515
0.032516705
-0.023741768
-0.11765518
0.00055675486
0.16441516
0.00031783739
-0.020345487
0.032726161
-0.029855027
-0.010867275
-0.63290458
-0.15571715
-0.001122475
-0.0012544916
0.15376667
0.15585536
0.13480747
-0.0070141052
-0.022809612
0.018931185
0.023150379
-0.028243837
-0.0031228349
-0.57771159
0.1294791
-0.00068003726
-0.0011383885
0.16275709
-0.00025533315
5.080034e-05
0.0001472407
0.13081759
-0.00014373823
-1.0332377e-05
0.1183798
-0.00063464234
0.00017597869
0.00037830725
-0.00015055873
7.0818715e-05
0.00014848021
-0.14569207
-0.00023225678
-9.0932348e-05
-0.1314733
3.1188244e-05
-4.8049598e-05
-0.16410157
-0.00075222298
-0.145442
-0.00039545619
-4.6403997e-05
-0.00033935422
-0.14391531
-0.0012935436
-0.00014912381
-0.1306871
-0.00070982685
-0.00065577444
-0.0052854862
-0.0094518814
-0.00099176986
0.0001387314
0.14498099
0.00026681877
-0.15427765
-0.00056077459
0.02853198
0.13142545
-2.4014123e-05
-0.16508017
0.49539162
0.032994496
0.03219936
-0.032388743
-0.035234079
-0.57721292
0.032561347
-0.032459701
0.031879896
-0.032333368
0.031322276
-0.13151032
-0.00017496206
-0.00015673055
-6.9494891e-05
-0.00058566283
-0.16406708
0.14544538
-0.00048332211
-0.14535057
-7.6442818e-05
-0.00027473196
-0.00012414459
0.00019495048
-0.1448121
-0.00027316718
-0.00014829843
-0.1300183
-0.00013665638
-0.0001125108
-0.16218179
-0.00064302301
-0.14493906
-0.00036419453
-0.00010468279
0.001201502
-0.00017183284
-0.14556038
-0.00035091853
-5.7432058e-05
-0.00036805197
-9.3568339e-05
-0.00072501902
-0.13057957
-0.00029971038
0.0001044067
-0.00075218841
-0.16234455
-0.0003402649
-0.14476593
-8.2952808e-05
-2.3603579e-07
-0.14379123
0.14394497
-6.0605117e-05
-0.00043316496
0.032668164
-0.16281747
-0.00041551864
0.1298124
0.035237827
-0.59584745
-0.032669768
0.032520112
0.52693827
0.024205872
-0.024840034
-0.024838435
0.024206971
0.032520717
0.010874252
-0.57721631
0.032198091
0.03299465
-0.02853343
-0.032391104
-0.63291096
-0.020346486
0.023742357
0.032725433
-0.029857254
-0.00019853244
-0.56406796
0.032596056
-0.025364146
-0.025445834
0.032546306
-6.5523241e-05
-0.563161
0.032552537
-0.025440697
-0.025446457
0.032502394
-0.56123367
0.032492771
-0.025423209
-0.025413958
0.032462524
-2.052882e-05
7.5699147e-05
0.0064432276
-1.8693826e-05
0.0047992176
-0.57253312
0.00029084111
0.0065838877
0.0047519183
-0.57471195
0.00075193884
0.0046170836
-0.57604357
0.0068974274
0.00061814664
0.0044512027
-0.5767115
0.007334029
-0.0098430103
0.0032851131
-0.57486156
0.0033148184
-0.12572479
3.3554964e-05
-0.51584545
0.0079072383
-0.035777153
-2.0378574
-0.084363925
0.094750485
-0.11885388
0.081296047
-1.8142723
0.042649965
0.030106619
0.021705683
-2.6260993
-0.021568075
-2.1869829
-0.19049028
0.63395069
-0.040299548
-2.3269991
-0.0075293879
0.62218111
0.53953547
0.61581443
0.077635507
-0.09809219
-0.1342213
0.096456254
0.085033286
-0.0062182364
0.47531292
-0.0045412037
-2.1039103
-0.0030754603
-0.10476382
0.12973054
0.096539622
-2.6567171
-0.0033691913
-0.013377469
-0.54782483
0.015413016
-2.1177925
0.0068646823
-0.38620758
-1.8762574
0.0064754113
-0.37552479
-0.52876185
0.012458413
-10.433356
0.0049233622
-0.006598745
-2.6301785
1.9495447
0.0010780961
-2.1782124
-0.14277597
0.0027547821
0.14506819
-2.3145145
0.0015062742
0.096405586
-0.094783312
-0.12925904
0.13181368
-0.0051519888
-2.3105907
0.00046072396
0.095944711
-0.095135608
-0.12956752
0.13060396
-0.0024188069
-2.6558862
0.53176445
-2.6831145
0.0024482852
2.1402986
0.0061843649
7.791137
-9.9017124
-0.51388054
0.53647649
0.55325703
-3.0568744e-05
0.51954451
-0.54589326
0.50000959
-0.52590598
-4.6688722e-05
-2.0662648
-0.10546399
0.13066111
0.13344665
-0.1088759
-0.0025113593
0.064369432
-2.6816759
0.0017792269
0.62866721
0.63343706
0.54233458
0.54557193
-2.2166125
-0.0019035778
-0.13606171
0.098738091
0.097921519
-0.13525254
0.0054911747
0.52333352
-0.0018929961
-0.0037284788
0.52000044
-0.0033102161
-0.0023535065
0.00084270774
0.00027423825
-0.52778675
-0.0001354341
-0.0040062263
-0.0011123616
0.00093725677
-0.00088105276
-0.037771421
0.0038269351
-0.03775773
0.0031107302
-0.037920097
-0.020315379
0.11756873
0.50186309
0.0071933036
0.0086716396
-0.65561214
-2.2129796
-0.11756431
0.12601497
0.091412611
-0.10254542
0.091409603
0.12601421
-0.10255019
0.10984887
0.096415775
0.10984359
-0.096306957
-0.098036124
0.096421093
-0.098031038
-0.096301064
-2.6178134
0.65560981
0.0030020524
-0.47149984
0.00037437559
0.50186006
0.0086734232
0.0072021763
-0.0041287138
-0.51558729
-0.02097452
0.02745926
-0.030637649
0.031582459
0.018228719
-0.0050808591
-0.050155409
-0.55422301
0.15889905
0.15613367
0.1352088
0.15526374
-0.011952188
-0.0021831451
0.023140733
0.0188121
-0.024697869
-0.033584064
-0.58012169
0.11863802
-0.0013324553
-0.0021906437
-0.00015330666
0.00010160301
-0.13046302
-0.00018433917
-0.00063321924
-0.0022559863
-0.0016496489
0.0012347826
0.14322787
-0.001367202
-0.01014264
0.12968368
-0.0060134544
9.1545656e-06
-0.00098596081
-0.0013684473
-0.00034480108
-4.7174781e-05
-0.14372373
-0.0011933838
-0.00019538896
-0.032525112
-0.13050335
-0.00082214187
-0.018228954
0.032523094
-0.029853779
-0.025300893
0.024180784
-0.5624969
-0.029851114
-0.025298784
0.024182705
0.0041329325
-0.020977027
0.027457716
0.031580174
-0.030640489
-0.51558896
0.0070065148
0.15572043
0.1558577
0.13480889
0.15376984
-0.0031371932
-0.5777166
-0.022811441
0.018929485
-0.028247314
0.023147537
0.11765766
-0.0012569261
-0.0011238919
0.00031485166
0.00055584503
-0.00016955425
0.0012051033
-0.14556275
-0.00035380429
-6.1156753e-05
0.00072745734
-0.13058112
-0.00030197122
0.00071326023
0.00036618867
-0.1314274
-0.13068958
0.00033790633
-0.0006576834
-0.0052883799
0.00068341078
0.14391858
-0.0094559028
-0.00099488655
0.12948237
-0.0011412944
-0.00025933396
4.8839716e-05
-0.0012974797
-0.00015151831
-0.14498382
-9.6593622e-05
0.00014124315
0.00026384463
-0.00056489226
-0.15427992
-2.5887814e-05
-0.16508208
0.00010151479
-0.00075371045
-0.16234592
-0.00034248568
-8.7261655e-05
-0.14476764
2.8736321e-06
0.14394675
-0.00043416929
-6.5485362e-05
-0.14379245
0.12981345
-0.00041573045
-0.16281832
0.16231694
-4.2246714e-05
-0.00024310205
0.03254306
0.1295414
-0.00023326735
-0.00018039106
0.03224525
0.024100777
-0.024670301
-0.032543265
0.032243268
-0.024669864
0.024100184
-0.0017333559
2.0770083
-2.0788658
-2.0794735
2.0782989
-34.809974
1.4788617
2.0331393
-2.0324316
-1.4799978
-36.22812
-0.53062026
-10.42309
-0.36967349
0.3746175
0.058635672
0.0019697408
0.13642397
-0.13381914
-0.13113078
0.13353196
-0.003442423
-2.535404
0.13143451
0.13596378
-0.13346712
-0.12915843
-2.476259
0.00069271354
-0.52529979
0.0014231488
-0.001525929
-0.00015255638
-0.54643926
7.952076e-05
0.032354051
0.032306117
-0.031995686
-0.031966995
1.9865367e-05
-0.53503935
-0.00074737885
-0.53365342
0.0014711928
0.00054131861
-0.0031352275
0.00017242618
-0.66469906
-0.0031656421
-0.65074792
0.54382032
5.0284432e-05
-0.5612163
0.032479168
0.032505984
-0.025406702
-0.025394482
9.383608e-05
-0.031953701
0.032220596
0.032250427
-0.031962157
-0.54565025
0.032260168
-0.031984635
-0.031981617
0.032313781
0.00018638341
-0.56314416
0.032516196
0.032563245
-0.025426944
-0.025429917
0.0030555555
0.00036691541
-0.56405228
0.032604701
0.032557338
-0.025432254
-0.025352848
0.00060813486
-0.66623864
0.53176162
-0.0029179891
-0.00036984258
-0.65899643
0.0015039948
-0.001551181
-0.54756744
0.032516172
0.03234647
-0.031972768
-0.032137684
-0.00057748526
0.00017728863
-0.56504682
0.032718081
0.032598117
-0.025346423
-0.025218755
0.0016155445
0.032520658
0.57558502
-0.024979334
-0.020088999
0.023897405
-0.57871195
-0.0096610471
0.12926049
0.5271101
-0.65451199
-0.00061290257
-2.6370268
0.13263152
-0.096204013
0.098736752
0.01116498
5.9875223e-05
-0.0021910583
1.4803102e-05
-3.6639089e-05
0.00012103181
-0.0026325646
1.8974886e-05
-4.0782982e-05
0.00018845478
-0.0029961024
2.2150903e-05
-4.4561355e-05
0.0002670941
-0.0033665138
2.4882205e-05
-4.8690378e-05
-0.055167837
0.00050166762
-0.0004703436
-0.00017147253
-0.00023474926
-0.055229532
0.00031387765
-0.00020460537
0.00018717269
-0.00016557879
-0.0034312156
1.8989945e-05
-2.3458259e-05
-0.00010261046
-0.0030548505
1.7614208e-05
-2.1834095e-05
-4.6480495e-05
-0.0026847862
1.6381069e-05
-2.02887e-05
-0.0022342181
1.5055866e-05
-1.8376494e-05
1.9838328e-05
-0.0022515572
3.402898e-06
-5.9015095e-06
4.0823197e-05
-0.0027033554
4.1632659e-06
-6.5778172e-06
6.400756e-05
-0.0030755602
4.591451e-06
-7.065414e-06
9.0273249e-05
-0.0034548849
4.9695884e-06
-7.5654468e-06
-0.055499173
0.00011341718
-6.698281e-05
0.00031348189
-3.5590333e-05
-0.05583871
7.4717592e-05
-2.5302762e-05
0.00032571395
-2.5144949e-05
-0.0034655813
3.5487095e-06
-3.2947983e-06
-1.5711124e-05
-0.0030851623
3.3174949e-06
-3.1461884e-06
-7.2713766e-06
-0.0027119046
3.1487357e-06
-3.0323555e-06
-0.0022589226
3.0516698e-06
-2.9576809e-06
2.6643119e-06
-0.0022615392
1.6987218e-06
-1.743939e-06
5.2946911e-06
-0.0027146021
1.8679424e-06
-1.7995926e-06
8.0756256e-06
-0.0030881016
2.0192511e-06
-1.8599123e-06
1.1117582e-05
-0.0034688866
2.1949775e-06
-1.9313676e-06
-0.056126806
5.1866812e-05
-1.3870635e-05
0.0002612185
-5.1694713e-06
-0.056324122
4.1767401e-05
-1.2028529e-05
0.00017274696
-3.8091337e-06
-0.0034705859
2.0206755e-06
-1.6812774e-06
-2.5031532e-06
-0.003089667
1.8762413e-06
-1.6164198e-06
-1.2430311e-06
-0.0027160587
1.754278e-06
-1.5570186e-06
-0.0022629378
1.6525435e-06
-1.4970513e-06
9.4656296e-07
-0.0022639524
1.3579167e-06
-1.2915859e-06
1.7874432e-06
-0.0027170109
1.4825847e-06
-1.3717424e-06
2.60737e-06
-0.0030906422
1.5941536e-06
-1.4391894e-06
3.4483309e-06
-0.0034716332
1.714548e-06
-1.5081111e-06
-0.056439522
3.2572527e-05
-1.1293073e-05
9.7569178e-05
-3.0055784e-06
-0.056499657
2.5378807e-05
-1.0160026e-05
4.7921962e-05
-2.2787741e-06
-0.0034724989
1.4567304e-06
-1.3167222e-06
-1.5674427e-06
-0.0030914623
1.3605448e-06
-1.2507081e-06
-8.3197278e-07
-0.0027178277
1.2697383e-06
-1.1859319e-06
-0.0022648454
1.1698944e-06
-1.1088325e-06
7.6198904e-07
-0.002265646
9.6165003e-07
-9.2183312e-07
1.39777e-06
-0.0027185197
1.047828e-06
-9.9109361e-07
1.9995503e-06
-0.0030921372
1.1221981e-06
-1.0486055e-06
2.6077959e-06
-0.0034731988
1.198681e-06
-1.1070348e-06
-0.056528968
1.9794384e-05
-8.7113997e-06
2.0836402e-05
-2.3160579e-06
-0.056543289
1.5718421e-05
-7.2928801e-06
8.2120541e-06
-1.7876691e-06
-0.0034737939
9.8386625e-07
-9.169417e-07
-1.2630013e-06
-0.003092717
9.2244016e-07
-8.6719547e-07
-7.0035182e-07
-0.0027191255
8.6226785e-07
-8.1870272e-07
-0.0022663779
7.9211368e-07
-7.6056122e-07
6.4685175e-07
-0.0022670481
6.5144327e-07
-6.2780802e-07
1.1483385e-06
-0.0027196602
7.0936129e-07
-6.7591552e-07
1.6009678e-06
-0.003093212
7.5875499e-07
-7.1612655e-07
2.049842e-06
-0.003474294
8.0895845e-07
-7.576876e-07
-0.056550954
1.2717204e-05
-6.0603164e-06
3.0580019e-06
-1.8454024e-06
-0.056555671
1.044798e-05
-5.0444341e-06
1.1586948e-06
-1.4553465e-06
-0.0034747246
6.6957027e-07
-6.2889127e-07
-1.0576513e-06
-0.0030936436
6.2809756e-07
-5.9410195e-07
-6.0397853e-07
-0.0027201398
5.8708589e-07
-5.6094827e-07
-0.0022676697
5.3918709e-07
-5.2152095e-07
5.691338e-07
-0.0022682505
4.4671151e-07
-4.3474304e-07
9.8146714e-07
-0.0027205715
4.8649505e-07
-4.6691408e-07
1.337502e-06
-0.003094026
5.2067039e-07
-4.9418756e-07
1.6786859e-06
-0.0034750982
5.5533006e-07
-5.2289418e-07
-0.056558946
8.6355609e-06
-4.1911775e-06
5.1016589e-07
-1.5499239e-06
-0.056561361
7.0906355e-06
-3.4550455e-06
3.285763e-07
-1.2445489e-06
-0.0034754281
4.5734896e-07
-4.3277223e-07
-9.2352326e-07
-0.0030943665
4.2875592e-07
-4.0920005e-07
-5.4156505e-07
-0.0027209666
4.0054997e-07
-3.872571e-07
-0.0022687985
3.6793806e-07
-3.6145878e-07
5.2007633e-07
-0.0022693163
2.9300702e-07
-2.9525108e-07
8.7864134e-07
-0.0027213285
3.1807454e-07
-3.1471381e-07
1.1731267e-06
-0.0030946695
3.4018734e-07
-3.3162897e-07
1.4462386e-06
-0.0034757138
3.6254453e-07
-3.4995142e-07
-0.056563092
5.5955716e-06
-2.7634599e-06
3.4580075e-07
-1.3689395e-06
-0.056564193
3.9391259e-06
-2.026081e-06
5.5658346e-07
-1.1159238e-06
-0.0034759603
2.5741351e-07
-2.6389925e-07
-8.4173394e-07
-0.003094935
2.4253282e-07
-2.5117037e-07
-4.9933476e-07
-0.0027216589
2.2810462e-07
-2.4010091e-07
-0.0022698003
2.126052e-07
-2.2794724e-07
4.8616334e-07
-0.0022702524
1.2138015e-07
-1.5520323e-07
8.110775e-07
-0.0027219496
1.2446263e-07
-1.5845647e-07
1.0727885e-06
-0.0030951635
1.2949226e-07
-1.6261338e-07
1.3071778e-06
-0.0034761614
1.3522329e-07
-1.6844424e-07
-0.056564691
2.0217422e-06
-1.1949122e-06
9.7892199e-07
-1.2607306e-06
-0.056564406
-1.3119847e-07
-3.8555595e-07
1.4921763e-06
-1.0370513e-06
-0.0034762996
-3.3188962e-09
-8.2238561e-08
-7.8758812e-07
-0.0030953315
1.704728e-09
-8.3224467e-08
-4.7140826e-07
-0.0027221875
7.8292988e-09
-8.6239182e-08
-0.0022706507
1.9079903e-08
-9.2217523e-08
4.6072765e-07
-0.0022710247
-7.8448283e-08
-8.2676948e-09
7.7034012e-07
-0.0027224011
-1.0438861e-07
8.338371e-09
1.0097073e-06
-0.0030954687
-1.2136999e-07
1.9184599e-08
1.227882e-06
-0.0034764083
-1.3685363e-07
2.7444389e-08
-0.0565635
-2.1918822e-06
5.1733155e-07
1.9965567e-06
-1.1939423e-06
-0.056562036
-3.4775205e-06
9.7708031e-07
2.2301536e-06
-9.8514149e-07
-0.003476477
-2.2164682e-07
8.1544312e-08
-7.4515378e-07
-0.0030955784
-1.9982534e-07
6.9578395e-08
-4.4742625e-07
-0.0027225779
-1.7576318e-07
5.4946342e-08
-0.002271365
-1.4056582e-07
3.3394766e-08
4.2912791e-07
-0.0022716837
-1.3442288e-07
2.4060953e-08
7.1848222e-07
-0.0027227424
-1.6733475e-07
4.2502413e-08
9.4337816e-07
-0.003095668
-1.900247e-07
5.4835608e-08
1.1413775e-06
-0.003476529
-2.1064623e-07
6.4647928e-08
-0.056560311
-3.2985231e-06
7.8607285e-07
1.9292561e-06
-1.0703086e-06
-0.05655875
-1.3600704e-06
-1.5844981e-07
1.0277058e-06
-8.8926683e-07
-0.0034765877
-8.9454346e-08
-3.2774153e-08
-6.8106751e-07
-0.0030957626
-7.9770562e-08
-3.3833726e-08
-4.1021115e-07
-0.0027229076
-6.8936971e-08
-3.6529612e-08
-0.0022719994
-5.2294419e-08
-4.2193736e-08
3.8160835e-07
-0.0022723271
1.0273212e-07
-1.5637975e-07
6.3281878e-07
-0.0027230991
1.1344612e-07
-1.7304871e-07
8.2418597e-07
-0.0030958906
1.234059e-07
-1.8661696e-07
9.8482088e-07
-0.0034766813
1.3341426e-07
-2.00408e-07
-0.05655776
2.1681003e-06
-1.7499601e-06
-4.226628e-07
-9.23358e-07
-0.056557523
6.5375514e-06
-3.6453025e-06
-2.2057547e-06
-7.7505383e-07
-0.0034768391
4.139488e-07
-4.0432728e-07
-5.9749003e-07
-0.003096075
3.8007203e-07
-3.7309369e-07
-3.6225678e-07
-0.0027233377
3.4395345e-07
-3.4024194e-07
-0.0022726902
2.9728791e-07
-2.9642079e-07
3.3393666e-07
-0.0022730816
4.8281553e-07
-4.2502615e-07
5.5028909e-07
-0.0027236225
5.6069779e-07
-4.9198759e-07
7.1095505e-07
-0.0030963143
6.2011602e-07
-5.4131975e-07
8.4169358e-07
-0.0034770587
6.7643752e-07
-5.8752642e-07
-0.056558132
1.0582015e-05
-5.3198775e-06
-3.8115309e-06
-7.9364942e-07
-0.056559299
1.2979939e-05
-6.2088444e-06
-4.8096039e-06
-6.7306441e-07
-0.0034773218
8.2731953e-07
-6.8468792e-07
-5.2233537e-07
-0.003096592
7.5732227e-07
-6.3018988e-07
-3.1651344e-07
-0.0027239398
6.8373328e-07
-5.7199592e-07
-0.0022734922
5.8770128e-07
-4.9365881e-07
3.0582633e-07
-0.0022739195
5.8751861e-07
-4.6551043e-07
5.1138706e-07
-0.00272429
6.8476333e-07
-5.3990814e-07
6.6471738e-07
-0.003096909
7.5922736e-07
-5.9539933e-07
7.8733283e-07
-0.003477627
8.3021741e-07
-6.4750631e-07
-0.056560672
1.3073311e-05
-5.9332861e-06
-4.9796154e-06
-8.3974351e-07
-0.056561611
1.0906741e-05
-4.7843731e-06
-4.3437971e-06
-6.9897162e-07
-0.0034779258
6.8737039e-07
-5.2914987e-07
-5.2696756e-07
-0.0030972204
6.2727626e-07
-4.8769139e-07
-3.0799357e-07
-0.0027246301
5.6568185e-07
-4.4403924e-07
-0.0022743291
4.8691977e-07
-3.8531621e-07
3.2358095e-07
-0.0022747241
3.0725113e-07
-2.3503268e-07
5.6523401e-07
-0.0027249541
3.5233039e-07
-2.6959809e-07
7.6339899e-07
-0.0030975169
3.9363283e-07
-2.9500066e-07
9.3009582e-07
-0.0034782083
4.349203e-07
-3.1909185e-07
-0.056561767
7.0922815e-06
-2.843755e-06
-3.1619053e-06
-9.1722135e-07
-0.056560976
2.4735831e-06
-7.6243862e-07
-1.5850178e-06
-7.568597e-07
-0.0034784087
1.3389275e-07
-9.3700732e-08
-5.6728876e-07
-0.0030977344
1.1640632e-07
-8.8274255e-08
-3.2604061e-07
-0.0027252109
9.8199496e-08
-8.2176708e-08
-0.0022750564
7.9231321e-08
-7.2972189e-08
2.0289574e-07
-0.0022752225
-9.2234666e-08
5.6118905e-08
3.5442334e-07
-0.0027253412
-9.236768e-08
7.1411957e-08
4.695307e-07
-0.0030978376
-9.432574e-08
8.2675274e-08
5.5004957e-07
-0.0034784829
-9.8850518e-08
9.2623261e-08
-0.056559957
-1.2931044e-06
9.5122987e-07
-1.2637401e-07
-6.6751355e-07
-3.4851491e-06
2.0757353e-06
4.3954815e-08
-5.4933191e-07
-2.4663404e-07
2.2107639e-07
-4.1088078e-07
-2.3058252e-07
2.0184007e-07
-2.3939495e-07
-2.1753439e-07
1.7995637e-07
-2.0286961e-07
1.4735384e-07
3.5622813e-10
0.082625417
-1.947025e-06
-1.8641757e-06
-2.723109e-08
0.0035891096
-1.30842e-07
-3.6539436e-08
0.0031352869
-1.1680052e-07
-3.0998789e-08
0.0027074024
-1.000663e-07
0.0022181658
-7.4841762e-08
-4.8756528e-08
0.0022179914
1.3173686e-07
-1.1916801e-07
0.0027072576
1.2318642e-07
-2.103447e-07
0.0031351639
1.2016414e-07
-3.3380396e-07
0.0035890136
1.2065019e-07
0.082623965
8.7146078e-07
-1.0459214e-06
-2.9301139e-07
0.082623832
4.0589424e-06
-1.1588276e-06
-2.8080076e-07
0.003588803
3.3236338e-07
-2.4989351e-07
0.003134938
3.1145289e-07
-1.7550593e-07
0.0027069947
2.8691143e-07
0.002217648
2.4715099e-07
3.5106904e-07
0.0022171911
4.1384872e-07
6.0431116e-07
0.0027066121
4.8195904e-07
8.2162337e-07
0.0031345826
5.3207417e-07
1.0252796e-06
0.0035884553
5.7896688e-07
0.082625356
7.7902609e-06
-1.1971658e-06
-1.1567415e-06
0.082626669
1.1209288e-05
-4.5778069e-07
-9.1581895e-07
0.0035880812
8.2066376e-07
-6.621603e-07
0.0031342048
7.5146152e-07
-3.7233617e-07
0.0027062091
6.7906191e-07
0.0022167233
5.8238804e-07
3.8986797e-07
0.0022162527
6.6843859e-07
6.8996343e-07
0.0027058112
7.8254566e-07
9.4866324e-07
0.0031338376
8.6779885e-07
1.1910908e-06
0.0035877199
9.4907297e-07
0.08262767
1.3063857e-05
1.9949951e-07
-1.2793306e-06
0.082628738
1.2489039e-05
7.019566e-07
-1.0204039e-06
0.0035873872
9.0113571e-07
-7.4376782e-07
0.0031334953
8.2307679e-07
-4.2370703e-07
0.0027054334
7.4158893e-07
0.0022157833
6.3337286e-07
4.5329593e-07
0.0022153363
4.7666158e-07
8.0124565e-07
0.0027050891
5.5714536e-07
1.1033e-06
0.003133195
6.184259e-07
1.3899182e-06
0.0035870993
6.777728e-07
0.082630131
9.476027e-06
1.1031956e-06
-1.4250988e-06
0.082631711
4.8756374e-06
1.5069516e-06
-1.1322771e-06
0.0035868824
3.380975e-07
-8.1937996e-07
0.0031329544
3.0783299e-07
-4.6285905e-07
0.0027047989
2.7769735e-07
0.0022149307
2.4003644e-07
4.431662e-07
0.0022145625
2.7890121e-08
7.7219829e-07
0.0027045608
2.2583688e-08
1.0532095e-06
0.0031327771
1.9780257e-08
1.3204856e-06
0.0035867304
1.8227187e-08
0.082633195
1.8533946e-07
1.8200638e-06
-1.2494137e-06
0.08263464
-3.5288363e-06
1.9725443e-06
-9.9939692e-07
0.0035866232
-2.3221974e-07
-7.3419262e-07
0.0031326376
-2.0548843e-07
-4.2598075e-07
0.0027043586
-1.7484605e-07
0.0022142144
-1.3020772e-07
4.4695749e-07
0.002213862
-2.2894444e-07
7.6719711e-07
0.0027041578
-2.8682222e-07
1.0372395e-06
0.0031325085
-3.3090857e-07
1.2973603e-06
0.0035865236
-3.7116989e-07
0.08263608
-5.581492e-06
2.140419e-06
-1.3936646e-06
0.082637261
-5.7663028e-06
2.5021892e-06
-1.1121965e-06
0.0035864131
-3.9258911e-07
-8.1541445e-07
0.003132364
-3.5209545e-07
-4.7156046e-07
0.0027039449
-3.0658685e-07
0.0022134942
-2.4428526e-07
4.8899705e-07
0.00221309
-1.6324707e-07
8.4343689e-07
0.0027037003
-2.1423821e-07
1.1466095e-06
0.0031321899
-2.5042167e-07
1.4381361e-06
0.0035862671
-2.8233681e-07
0.082637882
-4.3061248e-06
2.9316186e-06
-1.467085e-06
0.082637801
-2.0145419e-06
3.4314834e-06
-1.1671479e-06
0.003586072
-1.0814862e-07
-8.5768068e-07
0.0031319721
-8.9906418e-08
-4.9767794e-07
0.0027034165
-6.8319965e-08
0.002212649
-3.7520764e-08
5.0905256e-07
0.0022121722
8.9232287e-08
8.7617441e-07
0.0027030951
7.8789283e-08
1.1942018e-06
0.0031317116
7.2066024e-08
1.501397e-06
0.0035858324
6.7681582e-08
0.082636968
3.203106e-07
4.0354363e-06
-1.554763e-06
0.082635413
2.3059215e-06
4.7426671e-06
-1.2304649e-06
0.0035855485
2.1697117e-07
-9.0190536e-07
0.0031314157
2.0985061e-07
-5.2115117e-07
0.0027027383
2.042082e-07
0.0022116655
1.981383e-07
5.4203866e-07
0.0022111278
2.8873078e-07
9.4190097e-07
0.0027023494
3.0706987e-07
1.2911166e-06
0.0031310848
3.2187061e-07
1.638173e-06
0.0035852262
3.3784038e-07
0.082633077
3.8978194e-06
5.6718939e-06
-1.7565891e-06
0.082629796
5.2142223e-06
6.9147253e-06
-1.3755685e-06
0.0035848626
4.3989672e-07
-9.9424242e-07
0.0031307151
4.171219e-07
-5.7046767e-07
0.0027019309
3.9529423e-07
0.0022105574
3.6784456e-07
6.0125119e-07
0.002209957
4.4608706e-07
1.065514e-06
0.0027014721
4.8105743e-07
1.4854261e-06
0.0031303072
5.0876968e-07
1.9121227e-06
0.0035844538
5.3744629e-07
0.082625316
6.4344455e-06
8.593198e-06
-2.1075542e-06
0.082618837
7.7812564e-06
1.1253261e-05
-1.6244912e-06
0.0035839928
6.4752215e-07
-1.1533696e-06
0.0031298515
6.1264308e-07
-6.4598425e-07
0.0027009733
5.7861494e-07
0.0022093146
5.3566215e-07
6.9365268e-07
0.0022086279
6.4443209e-07
1.2579446e-06
0.0027004208
6.9759259e-07
1.7938862e-06
0.003129335
7.3937116e-07
2.3480992e-06
0.0035834661
7.8149517e-07
0.082608285
9.3945005e-06
1.6222523e-05
-2.6647676e-06
0.082588572
1.1348837e-05
2.6748115e-05
-2.0144276e-06
0.0035828542
9.4546833e-07
-1.3953031e-06
0.0031287437
8.9455698e-07
-7.582519e-07
0.0026998022
8.4373982e-07
0.002207883
7.7875603e-07
8.3174726e-07
0.0022070731
9.3984016e-07
1.559661e-06
0.0026991033
1.0187824e-06
2.2767572e-06
0.0031280687
1.0801502e-06
3.0318849e-06
0.0035821569
1.1408777e-06
0.082548343
1.3634845e-05
4.9420086e-05
-3.5801254e-06
0.082465993
1.6082386e-05
9.5227449e-05
-2.6631353e-06
0.0035813363
1.3604214e-06
-1.798028e-06
0.0031272737
1.2904372e-06
-9.394845e-07
0.0026982948
1.219788e-06
0.0022061737
1.1297866e-06
1.0866225e-06
0.002205136
1.3063149e-06
2.112549e-06
0.0026973434
1.4068358e-06
3.1567626e-06
0.0031263389
1.4839215e-06
4.2695589e-06
0.0035803786
1.5594805e-06
0.082307757
1.8174674e-05
0.00017690304
-6.6808526e-06
0.082036688
1.9278241e-05
0.00030024036
-4.8616132e-06
0.0035788586
1.7215737e-06
-3.1663225e-06
0.003124868
1.6520178e-06
-1.570318e-06
0.0026959184
1.5836572e-06
0.002203714
1.5042366e-06
3.0171483e-06
0.0022008891
1.5071297e-06
6.2696558e-06
0.0026929502
1.5837864e-06
9.8473678e-06
0.0031216734
1.6363493e-06
1.3876027e-05
0.0035753372
1.6879628e-06
0.081637512
1.8254776e-05
0.00044666359
-3.9925097e-05
0.081163637
1.9315193e-05
0.0005692037
-2.7899003e-05
0.0035648484
2.0131055e-06
-1.7376614e-05
0.0031124779
1.9922691e-06
-8.1353495e-06
0.0026848856
1.9757507e-06
0.0021938681
1.9372753e-06
1.9312577e-05
0.0021764057
1.5538192e-06
4.220172e-05
0.0026643894
1.7701366e-06
6.8571353e-05
0.0030888667
1.8330267e-06
9.9081733e-05
0.0035374674
1.8402755e-06
0.080759821
2.2498229e-05
0.00059381664
-0.00019818052
0.080644151
8.2945155e-05
0.00054478411
-0.00013652594
0.0034886551
6.1476539e-06
-8.3691618e-05
0.0030479056
5.7409866e-06
-3.8327639e-05
0.0026302849
5.121587e-06
0.0021490188
4.1151398e-06
5.4873866e-05
0.0021069767
1.9876316e-06
0.00011701519
0.0025834765
3.6481416e-06
0.00018814261
0.0029940758
4.8579643e-06
0.00027058035
0.0034251956
5.9041905e-06
0.08068847
0.00012854232
0.00059938711
-0.001029144
0.00040546928
0.0017296456
-0.00075115282
4.332256e-05
-0.00049256479
4.2871487e-05
-0.00024585446
3.8913333e-05
2.8065347e-05
5.5220816e-05
-0.0021425397
-5.4233053e-06
1.0169695e-06
0.00011853957
-0.0026228022
-1.9844469e-06
-3.147914e-06
0.0001912377
-0.003039331
3.4736703e-07
-6.2567477e-06
0.00027573659
-0.003478906
2.1872431e-06
-9.161463e-06
-0.080473485
0.00015812529
-0.00035972496
0.00054507987
-0.00019282773
-0.0806565
4.7504108e-05
-0.0001841733
0.00051251465
-0.00013251618
-0.0035319437
3.265717e-07
-7.5967009e-06
-8.1254731e-05
-0.0030840053
-1.1831924e-07
-6.4650857e-06
-3.742061e-05
-0.0026601923
-9.0369646e-07
-5.5319926e-06
-0.0021729765
-2.2694601e-06
-4.7143231e-06
1.8228019e-05
-0.0021921171
-4.3376263e-06
5.2503898e-06
3.9835857e-05
-0.0026827421
-4.4480714e-06
5.3902307e-06
6.4941988e-05
-0.0031099895
-4.5574165e-06
5.4363265e-06
9.4267348e-05
-0.0035620012
-4.6902654e-06
5.4229935e-06
-0.081101753
-3.8126197e-05
2.0905908e-05
0.00055674289
-3.6775524e-05
-0.081597264
-4.4918903e-05
3.4597241e-05
0.00054260984
-2.5530794e-05
-0.0035735542
-3.8402462e-06
4.1483985e-06
-1.5802145e-05
-0.0031201053
-3.5805929e-06
3.9675507e-06