/*--------------------------------*- C++ -*----------------------------------*\
  =========                 |
  \\      /  F ield         | OpenFOAM: The Open Source CFD Toolbox
   \\    /   O peration     | Website:  https://openfoam.org
    \\  /    A nd           | Version:  7
     \\/     M anipulation  |
\*---------------------------------------------------------------------------*/
FoamFile
{
    version     2.0;
    format      ascii;
    class       volScalarField;
    location    "170";
    object      alphat;
}
// * * * * * * * * * * * * * * * * * * * * * * * * * * * * * * * * * * * * * //

dimensions      [1 -1 -1 0 0 0 0];

internalField   nonuniform List<scalar> 
25278
(
7.9759559
7.9890459
7.9264279
7.9263607
7.9388616
7.9892078
8.0289841
7.9759931
8.0288658
8.1336703
8.0799395
8.0024014
7.9891895
7.9683166
7.6959684
7.9264807
7.9892715
7.9082239
7.4532832
8.0359037
8.1000835
8.1128059
8.0585928
8.0767713
8.1680619
8.0766568
8.0586591
8.1464901
8.1642128
8.2073698
8.1993383
8.1316481
7.9176633
8.0822017
8.1471631
8.1452303
8.1943648
8.1500831
8.0949423
7.8983403
8.0223361
8.0831994
7.9831865
8.0436321
8.1911874
8.2268349
8.1331467
8.1317643
8.1810452
8.1362593
8.071726
7.9623137
7.4123948
7.654064
8.0142173
8.0840086
7.9989598
7.9247129
7.5806852
7.7485261
7.8448953
7.6949364
7.5592745
7.9321762
7.8472341
7.8001179
7.8862551
7.4782078
7.3495255
7.4377413
6.8678837
7.1167886
7.3852088
7.6306974
7.8344803
7.9538748
8.1489807
8.2084973
8.1131718
8.0737314
8.0063791
7.7021358
7.9135641
7.4779282
8.0186803
7.921703
7.1465508
6.1986166
6.8002763
7.4018132
7.4900832
6.8683156
6.7875126
5.6856162
5.829051
6.8815276
7.0676381
7.6266301
7.7102058
7.1580033
7.0538085
6.0018861
6.2011344
7.1724359
6.5402148
6.4597507
6.271806
4.6782171
4.5708282
3.7144846
5.680803
5.7007079
3.7101091
3.7235554
4.8142168
4.9742712
3.7455102
5.9131414
5.8863013
5.8800703
7.4742826
8.0182015
7.9388339
6.7714563
5.6671637
4.5571784
3.7070525
5.6760561
7.1426942
7.9211394
8.0056843
8.0734122
7.9100853
7.6976965
6.7898278
6.1892047
6.2611084
5.6952779
3.7007171
4.6626614
4.7961554
3.7119299
3.7309613
5.9054329
6.527341
6.4485725
7.0567363
6.8704659
5.8094068
6.851601
7.6885883
7.3931744
7.481628
7.6190052
7.9028681
7.7029374
7.1610076
6.1794319
4.9531057
3.1497038
1.6691039
1.6783559
3.1646626
4.9173313
6.4942245
6.4192272
5.8156313
5.8329424
3.6166008
3.6132757
4.7648856
3.1014382
1.7408046
1.6015463
0.644114
0.73797078
1.8115257
1.8040835
0.75448893
0.66074769
1.6179773
1.7520096
3.0895299
4.7334904
5.9811764
7.0378675
7.1420735
6.4642851
4.8823836
3.563148
3.5677106
5.7665049
7.4345869
6.3910368
5.7777622
6.0288963
3.5763182
1.4837113
0.57921145
0.56242562
1.46177
3.6400413
6.0867272
6.7328896
7.3844723
7.8438556
8.0843408
8.1657103
8.136394
8.2028563
8.1503969
7.9273708
8.0291686
8.0890067
8.1985142
8.1575247
8.1037289
7.9111235
7.9940878
8.0525844
8.1377908
8.1945552
8.2215987
8.1333459
8.2198671
8.1881116
8.2343264
8.2241071
8.2291558
8.2246453
8.2282312
8.1521489
8.085659
8.2036778
8.1972657
8.1429913
8.1854953
8.1330698
8.1021064
8.0450505
8.1429282
8.027052
7.6766991
7.7690743
7.8629878
8.0948556
8.013714
7.9418473
7.6100603
7.7208934
7.5911711
7.9493668
8.0802415
7.9740381
7.4453943
7.8673061
7.473682
7.3863497
7.8203679
7.9034916
7.5107245
7.6108553
7.6859499
7.8059745
7.9365152
7.982064
8.1554192
8.0885072
8.0730372
8.014402
8.1369686
8.1363576
8.1829445
8.1710948
8.2168105
8.2047902
8.2272402
8.1582832
8.1677206
8.0989788
8.0984621
8.0068893
8.1608638
8.1019065
8.1122839
7.8925047
8.0025273
7.9277499
7.9921993
8.0429843
8.0477621
8.0536329
8.1873044
8.2192986
8.2207097
8.1932166
8.2212071
8.2255006
8.1989031
8.0787621
8.1484943
8.1330933
7.9913304
8.0395248
8.0247439
8.0098503
7.9819374
7.9415048
7.7489458
7.9231626
7.6440069
7.5472709
7.2302645
7.3887773
6.9178673
7.3487414
7.6499718
7.9297388
7.8420517
7.3981458
7.5538029
7.2506338
7.6476713
7.7640797
7.4070463
6.9338711
6.7635325
7.2173114
6.4503145
6.7459819
6.1233551
6.3344136
6.8105438
7.0476934
7.2904995
7.4839718
7.6713695
7.821097
7.8651273
7.7753832
7.9138611
7.8696459
7.7176973
7.538753
7.5982888
7.7250705
7.7488361
7.7873856
7.7614401
7.9008189
7.9160906
8.0223175
7.9641083
7.9503133
7.8130059
7.8370581
7.6708549
7.784536
7.6092403
7.5862304
7.5396346
7.3876041
7.3134792
7.0736757
7.1455368
7.3544212
7.4662839
7.7538683
7.9965666
8.0287722
7.7912451
7.7713872
7.9100057
8.0177653
7.9908899
7.9516919
7.8328384
7.8755133
7.7909531
7.9269465
7.8841834
7.7351353
7.5585902
7.6839923
7.7363145
7.5514171
7.4968745
7.3354969
7.4074794
7.616213
7.6570654
7.8266965
7.9617772
7.9739879
8.0291501
7.9240342
7.8490173
7.6847203
7.7930719
7.6182436
7.5964514
7.4537327
7.48602
7.5101734
7.6462709
7.8340551
7.8248132
8.0436302
8.0469447
8.0414963
7.9420473
7.9427821
7.8649791
7.8727122
7.9910601
8.0006622
7.9933688
8.0409626
7.9451707
7.950889
7.8787173
7.8792772
7.7279848
7.8233204
7.8236538
7.8174769
7.8124204
7.7040415
7.7159875
7.5257966
7.6500038
7.6639933
7.6619577
7.5446554
7.5377549
7.7239868
7.6114638
7.7934538
7.9401679
7.9301979
7.7851233
7.7734536
7.7543941
7.9083312
7.8917386
7.8537662
7.8031584
7.5505521
7.4155298
6.7804628
6.8956055
7.0592887
6.6605145
7.3111925
7.1631488
6.4707889
5.6255177
6.2406215
5.1844329
5.4363769
5.6225468
6.4093143
5.792421
4.7627592
4.5718664
3.6528898
4.9844189
6.0759521
6.927882
6.1695272
6.7785459
6.9337958
7.0822182
6.2548017
5.9661217
5.7835018
4.4883886
3.7909636
2.7927685
2.7825206
3.7272356
5.1060565
4.5577353
5.2067884
5.4500181
5.7500915
6.0513741
6.352586
6.6211692
6.8754486
7.0958179
7.3018982
7.3649255
7.1182397
7.0551901
6.8049481
6.8913266
7.1657366
7.2181303
7.4140676
7.5344646
7.4049205
7.433782
7.2392027
7.4704722
7.4359883
7.6410511
7.5031224
7.7081712
7.8763239
7.9703949
8.1483965
8.1339488
8.0609348
8.0790952
7.8457375
7.7840081
7.9212841
7.7837529
7.5224572
7.2674049
6.5900221
7.0188754
6.8537744
6.3985356
5.9769325
6.1551419
7.0250352
6.8743337
6.7161539
5.6768041
5.8586346
4.3851851
4.9528235
5.6938135
6.3606395
6.1922349
5.1192864
5.5307497
4.4729963
5.3995782
5.5825528
4.6560156
3.5447235
3.4920796
4.8430536
4.3308728
2.6068526
2.5739195
3.2421033
4.1572606
5.0433162
5.7533008
6.3733694
6.8401618
7.2250116
7.5835528
7.959372
8.1313746
8.1332826
8.1803745
8.2226232
8.2320556
8.2255216
8.2020212
8.2129574
8.0938425
8.1649129
8.1561319
8.0946515
8.0008955
8.1569777
8.1657155
8.1051962
8.0970091
7.8952559
7.8800242
7.9938823
7.9163136
7.9837228
8.0370001
8.0445879
8.0414482
8.0426152
8.0364658
7.9839571
7.8641211
7.9362783
7.9360036
7.8546822
7.6922529
7.8051318
7.8311977
7.8228595
7.8185968
7.9462335
7.9412275
8.0373303
7.9883357
7.9944909
7.871584
7.8734461
7.7213214
7.8191913
7.6577258
7.6587861
7.6436236
7.8113638
7.7059759
7.5145278
7.4966909
7.6385243
7.4636061
7.5800429
7.5884783
7.4911221
7.4748584
7.2927884
7.2701625
7.0127106
7.2410513
7.200745
7.1732599
7.1110513
6.873044
6.7851564
6.4906145
6.5739406
6.885489
6.5859709
6.5036177
6.1411847
6.2426087
6.3099735
6.6380331
6.9323442
7.1998597
6.974692
7.2580156
7.2029985
7.4535581
7.6649301
7.8363235
7.7358059
7.6801806
7.4677158
7.6034592
7.3895625
7.2182658
7.2913336
7.5402878
7.5889905
7.783014
7.8040109
7.895032
7.7374265
7.623523
7.5000567
7.7185644
7.6924037
7.6417254
7.5795484
7.4685912
7.5324305
7.267063
7.4054963
7.331863
7.1829936
6.8465548
7.0387124
7.1133752
6.9282589
6.5183454
6.764135
6.9947971
6.9026007
7.1268641
6.8393374
6.9133274
6.65181
6.565779
6.1650692
6.5050435
6.5905332
6.2699892
6.3413271
6.719577
7.0561666
7.346653
7.3886866
7.5386722
7.2993823
7.1051013
6.8895749
7.2245047
7.1754751
7.4598925
7.3267245
7.5898062
7.6185146
7.3724096
7.051769
6.9958346
6.5925371
6.8326384
6.4324401
6.3573733
6.2743921
6.6741072
6.4134441
6.1697973
6.6640882
7.0502147
7.3735765
7.6589127
8.0002473
8.0237403
7.9850429
7.6623861
7.7314393
7.7760204
8.0534722
8.0491339
8.0162119
8.0190829
7.7132503
7.7433999
7.8002243
7.6249491
7.6956699
7.7793597
7.8548253
7.9320806
7.9206309
7.837635
7.8316415
7.6502078
7.7589403
7.7729067
7.6689281
7.6839723
7.7832869
7.7885119
7.9288367
7.8525568
7.6932297
7.5919962
7.781265
7.7002195
7.4893269
7.4688671
7.5774793
7.5569854
7.7598515
7.7490351
7.6559662
7.6696349
7.4419205
7.4111219
7.5324863
7.2647996
7.4215216
7.5650356
7.5845834
7.4474984
7.1784795
7.3564737
7.331373
7.1449018
6.9386818
6.9821677
7.2985036
7.1425811
7.1000667
6.7163861
6.6573782
6.4188963
6.8804284
7.2495136
7.5366532
7.5034408
7.4427799
7.3540881
7.2840063
6.9258222
7.0174928
7.1339172
7.1984498
7.0857148
7.4197231
7.4549921
7.1410303
7.0604515
7.4035298
7.3656551
7.2980431
7.2652479
7.192031
6.7933382
6.8870702
6.931027
7.0019311
6.9592184
7.3346428
7.3732085
7.0191295
6.5441762
6.6058808
6.7250228
6.6576703
6.817994
6.7449985
6.5814913
6.4967423
5.9283807
6.0374808
6.2685242
6.3472234
6.1180253
6.194213
6.0150355
5.9366317
6.5351083
6.4565149
6.3924412
6.3084747
5.6545489
5.7602434
5.8557204
5.1089394
5.3747488
5.6986054
6.0364906
5.9458555
5.3842742
5.8101971
5.9046158
5.4949245
5.5737865
6.1158429
6.1876922
6.4962961
6.7746586
7.0216842
6.70809
6.9763148
6.6873851
6.9861251
7.2065204
7.4418301
7.2553802
6.991285
6.9489476
7.179625
6.9478575
6.6492547
6.6975729
6.3647815
6.4113178
6.7284605
7.0242958
7.245981
7.4705009
7.4806501
7.255903
7.051238
7.3045552
7.2841109
7.0256702
6.7375525
6.7698431
7.0455276
7.2516775
7.0401074
7.0640667
7.3113031
7.5285541
7.7157702
7.5989486
7.6089008
7.4838517
7.4680744
7.2064308
7.3763357
7.3912334
7.5372713
7.3239652
7.4942971
7.280035
7.2780062
7.07107
7.2813516
7.495797
7.4980446
7.2827335
7.0883891
7.3316122
7.3208639
7.0730247
6.7976089
6.8193817
7.0820805
6.8142411
7.0812011
6.8486326
7.1371933
7.1164231
7.0907209
7.0595663
6.8218199
6.8630783
6.5047985
6.7891654
6.75185
6.4556988
6.4019895
6.050718
5.9817192
5.4948548
5.9301586
6.3062934
6.655812
6.2362843
6.156751
5.7630761
5.8554993
5.4199434
5.8554187
5.7643297
5.309905
4.8293098
5.3366173
5.4163523
4.9136674
4.8295456
4.2329854
4.3312009
4.9168577
4.99234
5.4950687
5.927744
5.9889549
6.3633318
5.9947837
5.5625345
5.0635362
5.5661906
5.0623422
5.6492818
5.7255277
6.2568157
6.554071
6.6078845
6.3246488
6.7713869
6.8225336
7.180086
7.3268632
7.3502564
7.2124156
6.8691543
7.0542251
7.2293338
6.9305562
6.8993103
6.5496205
6.8215306
6.4952911
6.7911746
6.7619114
6.451647
6.4870318
6.5172811
6.1807978
6.5293262
6.2121271
6.5898549
6.299016
6.7033252
6.6577509
7.0206273
6.391149
6.4547863
5.9674451
5.8856881
6.240707
6.179233
6.1159823
5.6363197
6.054163
6.4125833
6.4563189
6.1101311
5.6876964
6.0935196
6.0435165
5.6259997
5.1352738
5.2094812
5.7068726
5.2253167
5.8044321
5.3765835
6.0183358
6.5539438
6.9878848
7.3313143
7.5958168
7.5772999
7.5012446
7.5225353
7.233773
7.1909673
7.2941675
6.9364329
6.7877697
6.8470943
6.3468681
6.2699318
6.4871445
5.9365135
5.8578145
5.7803729
5.4533968
5.5320946
4.735119
5.2012758
5.1248565
5.0495278
4.9624658
5.6180545
5.2958132
4.5105113
4.6025985
4.666023
4.2668077
5.1830099
5.2590047
5.1089807
5.9200338
5.8408538
6.4718176
6.4810115
6.9646477
7.3375908
7.6653269
7.9860675
8.13206
8.1321325
8.1006794
7.9121332
7.459393
7.0715111
7.6318151
7.0647771
6.4367343
5.8281673
5.8486821
6.5147035
4.9513812
3.6481885
3.6383576
4.7939792
6.0148172
6.2131113
7.1684115
7.7138234
7.9157076
7.1740849
6.535788
4.9771489
3.193347
1.6266166
1.7624524
3.1262571
1.8284763
0.76043958
0.66723199
1.6957278
3.74169
3.7243685
4.8208235
6.4592495
7.4772332
5.8832916
6.3831979
4.718286
3.0821255
1.8150541
0.7600468
0.66660319
1.6801381
3.1406993
1.5944394
1.7323191
3.5462415
3.5358269
4.8644672
6.4556239
7.4322722
5.7576036
5.767136
6.0180438
3.5418785
1.456242
0.58508132
0.58658331
1.489991
3.6803655
6.1047049
7.4179924
7.9638886
8.0728211
8.1386043
8.0388219
7.6627406
7.9304142
7.8519358
7.8017565
7.8876613
7.9364685
7.5684761
7.4819467
7.3533896
7.4475163
7.5918182
7.7051403
8.0038943
8.0886102
8.0194625
7.757959
7.8534089
7.9286484
8.1377784
8.1826214
8.181374
8.133648
8.0199623
8.0167101
8.0505496
8.055642
8.0266361
8.0038319
7.9605683
7.5869188
7.6671865
7.7383494
7.7811688
7.7154901
7.7448639
7.8036764
7.8987193
8.09856
8.1075447
8.0823036
8.0649918
7.7930503
7.8529905
7.9761379
8.1512883
8.1679697
8.1584743
8.0036026
7.9981088
7.8852841
7.6674274
7.5892077
7.5118319
7.4597362
7.4260201
7.4235742
7.4518449
7.4761343
7.448704
7.1234985
7.160916
7.1140039
7.0745148
6.6135913
6.6730895
6.7381953
6.6813968
6.0888728
6.1786468
6.0950718
6.0020575
5.1932883
5.3437853
5.6164532
5.7086987
4.9131317
4.8160882
5.2843588
4.553554
5.1405734
4.5395256
4.4655441
4.3976369
4.9885233
4.4108628
4.3479587
4.2970867
3.7264153
3.7581787
2.9291072
3.6568825
3.6110381
2.8971364
2.2910242
2.2498237
3.2265447
4.219799
4.0011126
4.9648119
4.903576
3.9411651
2.9442137
2.9050448
1.8109212
1.8704708
1.0838164
1.5513154
2.2450125
3.025133
3.7114018
4.3485611
4.8724838
5.3621672
5.783816
6.1884019
6.5411516
6.6252992
6.9473338
7.2337887
7.4800423
7.6869064
7.6275191
7.500227
7.7056972
7.7589391
7.5698838
7.6154844
7.7275681
7.5268333
7.5596482
7.3241938
7.2857875
7.0976792
7.3802714
7.3282451
7.2581042
7.4182359
7.1598651
6.9510663
7.0397849
6.8266642
7.1627872
7.4437266
7.6703616
7.6110569
7.3732205
7.2340836
7.5064971
7.5672864
7.314177
7.3696879
7.4944793
7.7180761
7.8035713
7.8218784
7.6467526
7.418521
7.1424183
6.9427897
7.2651501
7.5305789
7.740917
7.8628811
7.7526632
8.034737
7.9959006
7.9735986
7.9727574
8.136372
8.1329524
7.9892685
7.9264862
7.9760361
8.0290941
7.9687181
8.0589538
8.1130864
8.1018685
7.9730988
8.0794779
7.8193274
7.4422877
7.3842495
7.5086024
7.9025574
7.9465153
7.8643414
7.4681175
7.5858719
7.7140635
8.0100597
8.1412568
8.0430486
7.6708297
7.9379342
7.6029188
7.7621226
8.0229934
8.0911289
7.8564564
7.9303541
7.7996008
7.6808343
7.6089293
7.6818391
7.6836816
7.728423
7.7913015
8.06153
8.0546329
7.8103257
7.90368
7.7925048
7.8654147
7.8504501
7.8469213
7.6701626
7.6857304
7.6977449
7.7042924
7.7966802
7.9354772
7.8610508
7.791749
7.6062963
7.5955305
7.5790506
7.7757601
7.7682777
7.558803
7.4443813
7.6796225
7.646014
7.6211578
7.5391245
7.4822548
7.4164055
7.1092091
7.1890906
7.0780335
7.3968455
7.3302974
6.9905088
6.5844829
6.7426569
6.9127448
7.09118
6.7396332
6.4994409
6.6006213
6.9911508
7.0543137
7.2208164
6.8909193
6.6703778
6.7294763
7.1046751
7.4106438
7.2950223
7.5682018
7.4892835
7.4584905
7.1416322
7.249174
6.8890598
6.8206295
6.3703832
6.2739746
6.0478624
6.154668
6.6663331
6.7379605
6.7991359
6.94541
6.5108673
6.4450316
6.2318149
6.302598
6.1300725
6.682923
7.1121359
7.1915437
7.2351561
7.3338519
7.6043432
7.6182323
7.6892374
7.4697955
7.4916634
7.7115717
7.7126931
7.5072439
7.2384217
7.3698603
7.4981791
7.6188602
7.4031947
7.3913513
7.3748414
7.5996991
7.5829857
7.3530106
7.1778307
7.4473348
7.4693875
7.2064456
7.2295097
7.4860203
7.3516669
7.3287445
7.3002872
6.985993
7.0229763
6.828074
7.1823807
7.1467141
6.781277
6.3453788
6.6154805
6.8619987
7.084414
7.0498266
7.0058355
6.688222
6.7377666
6.4532477
6.8195973
6.7686652
6.704301
6.3277193
6.2250733
5.8220983
5.9131987
6.2669342
5.8752473
5.468929
5.3590825
4.9146822
5.4293025
5.8987897
5.9928344
6.4335894
6.1405925
5.6201967
5.5093731
4.9654249
5.0530726
5.5103023
5.0053885
4.4688119
4.36508
3.7890062
4.4764216
5.1231147
5.2154254
5.8318589
5.532177
4.8039655
4.703687
3.9454171
3.9940868
4.5381311
3.8491189
3.168641
3.1159757
2.5243633
3.4790633
4.3647459
4.4382835
5.2770796
5.9788322
6.5443434
6.9930781
7.3415032
7.2720419
6.9062968
6.8558305
7.2365315
7.3059825
6.9453891
7.0127751
7.0592834
7.4049312
7.4383827
7.405372
7.3712525
7.3697824
7.304384
7.2348589
6.9296827
6.7746162
6.1608538
5.7765552
5.9580913
6.2365987
7.072194
6.9181698
6.0588273
4.9588094
4.4766081
3.7727331
2.776067
2.7615855
4.5431368
5.0762248
3.6879441
3.6202306
4.538563
5.598542
6.4518525
7.151623
6.7666838
7.4047091
7.5397042
7.2993313
6.6407412
7.0423764
6.8785517
6.2171506
5.1594348
5.4063389
5.5908451
4.7249181
5.7624797
6.3848928
6.5972458
6.3254721
6.0215256
5.7195938
5.4222822
5.1864167
5.0500071
5.0573656
5.7721365
5.8781351
6.4638996
6.3940937
6.4749816
5.875718
5.9529135
6.0567871
6.6182767
6.5496276
6.6156572
7.0672616
7.1163336
7.1593801
7.4817732
7.5307022
7.5468864
7.2710436
7.3647064
7.3921773
7.6431096
7.6482066
7.4132165
7.3303494
7.5844746
7.5768903
7.3038301
6.9513344
7.0764343
7.2128936
6.8700675
7.0546248
7.0811698
7.247714
6.9535712
7.1509673
7.1338772
7.1118804
6.8120418
6.7782075
6.5023166
6.5457063
6.8977423
6.9282083
6.5840928
6.8403639
6.8636792
6.6175679
6.2432416
6.5438059
6.5132918
6.4777562
6.4371616
6.3904274
6.3354764
5.9468994
6.0071151
5.6093925
6.047914
5.9860044
6.3962163
6.0674572
6.5049728
6.5637861
6.1323535
5.7707054
6.2834485
6.2167027
5.6982709
5.1304856
5.5880825
5.6570412
5.1523278
5.0816006
5.5434163
5.0719533
5.5193811
5.4435677
4.9660827
4.4905522
4.9956363
4.9025807
4.7092521
4.5524827
3.2824238
3.5024706
3.6348382
2.6769446
3.702454
3.5663586
2.5479918
1.5454938
2.3375109
2.3200581
1.1575468
1.3085467
0.70316022
0.61522899
1.5444154
0.87097002
1.5957202
2.4522763
2.4594086
1.5438175
1.5923961
0.76950093
1.4269649
1.2768013
0.68045954
0.37908624
0.43051436
0.92400565
0.41022953
0.3608779
0.29814668
0.32090065
0.33090305
0.42409446
0.71708192
1.3306282
2.6424966
4.3585892
5.6928269
6.7241652
6.8829013
7.0444358
6.886359
6.0131386
6.1946456
5.8772488
4.4206183
5.0227412
4.9007916
3.568793
3.6399012
2.6203265
2.9748083
3.9667398
4.922257
5.6671406
6.316806
6.7985942
7.1952152
7.2682779
7.3078012
7.2347563
6.8556703
6.9463975
6.8924172
6.401295
6.480633
6.3964005
5.7891333
5.8934502
5.7743
5.855949
5.9358414
6.5532309
7.0243647
7.375892
7.4122608
7.3748821
7.0169946
7.0749081
7.1609133
7.4667926
7.4324603
7.3675951
7.2978641
7.3898545
7.458488
7.1579923
7.0389638
6.9475097
7.0748404
6.6993866
6.5289006
6.6147643
6.7808052
6.3208268
6.0877376
5.9763532
6.2207779
6.4607015
6.8802089
7.2072367
7.4849203
7.2873542
7.1364781
6.7550292
7.400703
7.5373503
7.0435099
6.6267683
6.433901
6.8782465
6.2252454
5.5829174
5.1598897
4.537853
4.7303119
5.7524412
6.3951933
5.6203952
5.4347136
6.1372445
6.7627106
7.2444869
7.6407118
7.9050172
8.0991773
8.2012251
8.1136158
8.1336772
8.2282905
8.2237546
8.2206665
8.1694662
8.2221999
8.208868
8.1481303
8.1660024
8.1340951
7.9229259
8.1482645
8.1491453
8.1968324
8.1536817
7.9889116
8.0869275
8.0266113
7.8399962
7.9558244
7.928004
7.7580527
7.4017814
7.649864
7.5537697
7.3940474
7.8465727
8.0846448
7.3983092
6.4613306
7.223307
7.353634
6.933183
6.3467585
6.9342216
6.7649922
7.2480869
7.5552013
7.650637
7.9293442
7.8419747
7.6449045
7.7610369
7.4037636
7.4950037
7.7541641
8.0409654
7.9952551
7.9477329
8.0484749
8.1941567
8.2012481
8.2272097
8.1949222
8.2232892
8.1361833
8.1510239
8.0825166
8.0966186
8.2148204
8.203339
8.2266996
8.1885972
8.2334372
8.16684
8.1574941
8.0964352
7.9980628
7.9366093
7.8605097
7.7862013
7.7034759
7.6332193
7.5647329
7.5187784
7.4894727
7.4876744
7.5130472
7.557186
7.5693095
7.633984
7.3919156
7.3648919
7.2735776
7.3067105
7.2432921
7.5282152
7.5039075
7.2103736
7.1700597
7.2053243
6.8013622
6.9034051
7.0350324
7.0775285
6.9556238
6.5010829
6.680493
6.618738
6.4244424
6.2655521
6.353794
6.861227
6.8116505
6.7478649
6.1801563
6.2741469
5.532322
5.6703873
5.9146163
6.187612
6.1026282
5.8088326
5.0288206
5.4781642
5.5869719
5.1618784
4.7322164
4.5899301
5.5493907
5.440192
5.2910862
4.2233913
4.477214
4.389517
4.3210128
4.0822076
4.037336
5.0350043
5.0592798
4.986562
5.1660795
5.0941703
4.2294575
4.3021714
4.0322711
4.0738765
4.1247833
5.1356472
5.3271512
6.0560081
6.630105
6.5595776
5.9762495
6.1700004
6.6909061
7.1065987
7.2215011
7.5180155
7.5500576
7.2710217
6.9140732
6.7574867
6.2467424
6.4708546
6.3999164
6.8531616
7.0281562
7.3485712
7.6042207
7.5479842
7.6558066
7.5945317
7.3534454
7.4259953
7.2900703
6.9616851
7.1418296
7.0677754
6.7132501
6.8026269
6.5653034
6.6389146
6.7020275
7.0820057
7.3925036
7.6315416
7.7301156
7.7052445
7.478966
7.5173927
7.6373891
7.8137756
7.7939163
7.7478901
7.6931303
7.7941948
7.8459347
7.6781695
7.5570568
7.4856594
7.6175489
7.4075291
7.2418115
7.313907
7.4705549
7.2242832
7.024074
6.9333547
7.1491525
6.8655766
6.6033022
6.3239234
6.0075428
5.6871201
5.3629102
5.4486505
5.7724813
5.1486608
4.7055396
4.6023147
5.0535367
4.4056827
3.8381341
3.3303883
3.3330119
2.9430226
1.8418653
1.8956881
2.3847319
2.3635405
2.3394478
3.3564727
4.361635
5.2458285
5.5325636
5.6151975
5.9359816
5.8571805
5.2310549
4.7805768
4.8605093
4.4294906
3.3892905
2.9245452
2.8675197
3.23355
3.8360217
4.4769441
3.7488844
3.7004952
2.9301889
3.7936393
3.2280165
2.8836604
1.7288682
2.1981781
2.1424587
2.9354021
2.948488
3.8928371
3.9697787
4.6448014
3.882016
4.6225226
4.7152863
5.3170186
5.7778817
6.1630626
5.7473438
6.1394382
5.7546962
6.1522053
6.1084386
6.0602848
5.6704042
6.1033215
6.1541952
5.7283028
5.783097
6.2008577
5.8483852
6.299184
6.7031517
6.6616517
6.247202
6.1915991
5.8411111
5.911004
6.4038552
6.4591248
6.5101419
6.7397277
6.3468294
6.0461742
5.9796789
5.439361
5.3588082
5.7864888
5.7226633
5.2218081
5.2915376
4.7692952
4.6876593
5.2802096
5.2045674
4.6119241
4.5404056
3.9058065
4.6099411
5.2935459
5.9120492
5.9853412
5.3702488
4.950047
5.6879926
5.6114296
4.8752461
4.0471909
4.1077203
4.6831137
3.9676521
3.2269806
3.1933083
2.4842793
3.5097009
4.4967368
5.3532925
5.4289014
4.5614836
4.3017894
5.2657902
6.0265759
6.100635
6.2024195
6.3703252
6.5713264
6.9942809
7.0377228
6.6283833
6.4367849
6.9047067
6.8540745
6.7423698
6.7983821
7.1991371
7.5008217
7.4711395
7.4511226
7.449718
7.7268996
8.0264712
8.0271176
8.0213994
7.7530085
7.5329682
7.543408
7.2670991
7.2361652
7.1980146
7.5055561
7.5171598
7.2313884
6.8460042
6.900485
6.9935441
7.1102035
6.731281
6.9071479
6.9389979
7.102696
7.261277
7.4109539
7.5492303
7.6724496
7.8412353
8.0550261
8.1921394
8.2165052
8.172801
8.0801588
8.1009508
8.026976
8.1005704
8.1876565
8.1511202
8.1341088
8.2168922
8.2130582
8.1731706
8.1926234
8.2260805
8.2189776
8.204226
8.2067183
8.2092786
8.1409597
8.1611855
8.0918302
8.2054348
8.1843211
8.0803724
8.0695228
8.140783
8.1233594
8.1954074
8.1638106
8.1833588
8.1378863
8.1583475
8.1352457
8.1502635
8.1585947
8.2055103
8.2180323
8.2248759
8.1761564
8.1823389
8.1956848
8.1803215
8.1076578
8.1256047
8.0453026
8.1628384
8.1410047
8.0336385
8.0268693
8.1129034
8.1810009
8.2035127
8.1671823
8.1027967
8.1209537
8.1415647
8.0839143
8.1506861
8.0551899
7.9241056
7.9365364
8.0879534
8.1131043
8.1163877
7.965893
8.056431
8.0052307
8.0073278
8.0359414
8.1727174
8.2127401
8.2034177
8.2180821
8.2246611
8.2081412
8.1826515
8.2033207
8.0890257
8.1594307
8.1396084
8.0781982
8.067869
8.1819186
8.2058148
8.1946985
8.162722
8.055222
8.1225133
8.1396176
8.0228723
8.0265401
8.0428289
8.0401326
8.029728
7.9827539
7.9934984
7.8744471
7.9468992
7.9358757
7.8708214
7.867987
7.9848234
8.0288744
8.01838
7.9722024
7.8617065
7.9255735
7.9370049
7.8144598
7.8139997
7.8397971
7.8238404
7.817051
7.7231017
7.7241005
7.5434588
7.6690571
7.659854
7.5447556
7.5448823
7.72082
7.7164802
7.8070535
7.6528375
7.6633198
7.5034923
7.5872095
7.8148696
8.0277975
8.0445033
8.0432502
8.0323912
7.9386814
7.950227
7.8792807
7.9977078
7.9862543
7.8747577
7.8712453
7.9394392
8.0312262
8.0204815
7.92769
7.8644859
7.9748353
7.9878729
7.9314647
7.992643
8.14059
8.1794168
8.1619321
8.0026116
7.9046261
8.1081083
8.0840229
7.8974944
7.886794
7.9805983
7.918638
7.9752715
8.0201485
8.0237708
7.8226848
7.7932738
7.7907088
7.9130825
7.913954
8.0070312
7.9602493
7.8499967
7.8588523
7.9287364
7.8079185
7.8089262
7.8166394
7.8197648
7.8272248
7.7293668
7.7272968
7.5491273
7.6624932
7.6652942
7.6543437
7.5442948
7.7191219
7.7241092
7.5480975
7.3442551
7.5051114
7.5024193
7.6003012
7.5046308
7.5002176
7.3383277
7.3336108
7.0955907
7.2986281
7.2929288
7.1039557
7.1104443
7.3411941
7.3401744
7.5418958
7.5382039
7.7113717
7.8565118
7.9727963
8.0182408
8.0054596
7.9582658
7.8481125
7.9124824
7.9269121
7.8063204
7.8220838
7.7929038
8.0066169
8.0038355
7.9920098
7.9432216
7.9580724
7.8416912
7.9118716
7.8986034
7.8328152
7.6891706
7.7800159
7.7897155
7.7949358
7.7040235
7.5313871
7.6417223
7.6572101
7.4976446
7.5860767
7.565626
7.4840418
7.6416032
7.6274414
7.5174742
7.5251133
7.6968993
7.5975282
7.7643306
7.9007865
7.9642007
8.1148481
8.1570711
8.1343772
8.1491055
8.1508548
8.2175771
8.2044592
8.1949269
8.1818178
8.1796737
8.1398573
8.1618262
8.044198
8.1250165
8.1068978
8.0321597
8.0373777
8.0049417
7.9887702
7.9779509
7.9789552
7.9921614
7.9430739
7.9275377
7.8168231
7.884702
7.8997095
7.8260551
7.6819343
7.7788685
7.8018128
7.7734235
7.7624747
7.8846625
7.8714056
7.9659444
7.9116648
7.9273914
7.8102708
7.8012372
7.6583738
7.7531514
7.6011777
7.6148511
7.6142458
7.7669052
7.6734867
7.502494
7.510806
7.6308052
7.4720567
7.5627057
7.8021631
8.0053791
7.9896235
7.7741487
7.7630576
7.8851317
7.9785743
7.9795786
7.9930398
7.9931111
7.8995166
7.8339858
7.9444982
7.9596523
7.8430429
7.6982192
7.705693
7.796152
7.6426604
7.658338
7.5400708
7.7135913
7.6134015
7.7817467
7.7876082
7.9196792
7.8515727
7.8644062
7.8601535
7.9304131
7.9396252
7.7981541
7.7960119
7.7090006
7.7086653
7.8693905
7.8012909
7.7946786
7.61809
7.6144516
7.5202551
7.7271986
7.7218811
7.5277532
7.5332106
7.6198832
7.7081497
7.793229
7.6222458
7.6236355
7.6226142
7.5062641
7.5109092
7.2707938
7.415238
7.4165873
7.4152974
7.6187378
7.5111321
7.7038523
7.6176696
7.7884931
7.7992281
7.7305025
7.7199587
7.5336489
7.2927198
7.4007249
7.3986399
7.5123485
7.2763633
7.2785033
7.1383264
7.1311641
7.1192751
7.3929891
7.38334
7.2590515
7.274947
6.9651915
6.9855059
7.2860932
7.1803741
7.4531511
7.6727992
7.8147902
8.0398316
8.1376386
8.1115679
8.0398724
8.0843376
8.0583018
7.8717559
7.7922599
8.0139513
7.984414
8.0114265
8.0095001
8.0323531
8.0625458
7.817516
7.7651499
7.7658109
7.7598636
7.80654
7.6696923
7.7244485
7.789946
7.8530506
7.8374284
7.904644
7.7735434
7.6913321
7.6988312
7.5074055
7.501848
7.6065842
7.4064159
7.5328375
7.5261876
7.6421145
7.6279241
7.7807156
7.6900063
7.5181961
7.3205707
7.4720076
7.4842843
7.4861414
7.4984045
7.4967903
7.2940231
7.3049193
7.2945331
7.300691
7.5075989
7.3395942
7.3427912
7.1080072
7.101123
6.8374062
7.0985042
7.1013789
6.8470854
6.8333832
6.5426511
6.562907
6.8499435
6.8592722
7.1102239
7.3038796
7.293346
7.4956875
7.1118681
6.8624379
7.1065518
6.8637222
7.113564
7.3423567
7.3395051
7.333556
7.1088171
7.2860973
7.3015701
7.1131412
6.8656789
7.109933
7.3012279
7.2858469
7.4856404
7.3325528
7.3379002
7.1119551
7.1080522
7.1043353
7.3272984
7.320082
7.4717688
7.2733943
7.2902171
7.1016008
7.290344
7.273485
7.0979901
7.1047252
7.3277999
7.1692737
7.3999307
7.5989566
7.7659223
7.9026024
7.8879668
7.7568819
7.6749973
7.8203724
7.8373513
7.6840751
7.4949887
7.4873174
7.5908655
7.3925667
7.2626542
7.2689016
7.2741537
7.2774129
7.4117137
7.1776906
7.1788438
7.1771413
7.1722051
7.1635976
6.8823028
6.8962339
6.6690896
6.98958
6.9738944
6.6459276
6.2806868
6.5695107
6.5899749
6.2542853
6.2254605
6.1911805
5.8344019
5.4295797
5.9071616
5.5200159
4.9458634
4.8558039
5.3611304
4.8524278
5.3338167
5.2709435
5.7012261
5.6446086
5.5845328
5.1115585
5.0422451
4.5653881
4.6359241
5.1406361
4.6340996
4.5636688
4.4882098
4.4146979
3.8854875
4.3819631
3.8510311
3.9316859
4.4196458
3.7844658
3.2939994
3.20813
2.7641623
3.3645821
3.425312
3.9684026
3.3696382
3.8988895
3.8218158
3.2809343
2.7992771
2.8649878
2.3418348
2.8300765
2.8858392
3.3514011
3.8452179
4.493771
4.5637817
3.9071425
3.4112676
4.0715928
4.0024422
3.4928693
4.0399533
4.1093612
3.4907966
4.0302389
3.9643135
3.4291923
2.9213294
2.9798093
3.5594885
2.9439941
2.4407595
2.3893351
1.7946376
2.1936785
2.5908447
3.0777656
3.0447292
2.2368639
1.7613884
2.5591298
2.5298101
1.749444
1.081839
1.0218592
1.4703319
0.97233018
0.56824533
0.64706321
0.44794366
0.84814321
1.4296541
2.1349023
2.1582523
1.4411837
1.1585129
1.7632059
1.7300512
2.2713521
1.7563655
2.1966507
2.6343398
3.1762892
3.2057552
2.6686474
1.8874522
2.4303526
2.4267586
1.8717225
1.5063663
1.5177177
2.2207034
1.790241
1.2035099
1.183385
0.72373983
0.915324
1.1905377
1.7338068
1.6597187
2.5067703
3.484419
3.1402241
4.2042886
5.1221705
5.193316
4.2491955
3.1360083
3.1398275
3.5431159
2.4687535
1.8977298
1.9627895
2.0313711
2.0768292
3.1633503
4.1350982
4.1250161
4.1922912
5.1137874
5.8698985
6.4710568
6.9427037
6.8532821
6.8990066
7.2669901
7.3364016
6.9858154
7.0520308
7.0102626
7.0646576
7.4040156
7.433596
7.4000955
7.4514165
7.7480257
8.0324929
7.9952549
8.0119291
8.0697964
8.1842691
8.1821212
8.1359079
8.0209114
7.7517362
7.8071835
8.0530444
8.0597254
7.7872577
7.8876032
8.1097641
8.0856389
7.8569963
7.9765955
8.1523685
8.139602
8.1944652
8.2283101
8.1335532
8.2235697
8.2146116
8.1685973
8.1587056
8.0998232
7.8996579
8.0029704
7.9977727
8.0952234
8.0811868
8.2011982
8.2264804
8.1931831
8.2227221
8.1961567
8.1542673
8.2014892
8.13466
7.9224815
8.1001161
7.9051075
7.9885469
8.0848652
8.146709
8.1475272
8.024479
7.8352956
7.6385137
7.3873574
7.2366573
7.3940331
7.7554044
7.9235271
7.9488152
7.5432902
7.6402342
7.3350848
6.9152196
6.7440758
6.4284299
6.0966824
6.3086142
6.89755
6.7240925
7.2025031
7.5358715
7.3703491
7.8377705
8.081675
8.146572
8.1649212
8.2080443
8.2215203
8.1688087
8.2200672
8.1872863
8.2327746
8.2260226
8.202997
8.0951506
8.1559986
8.1649506
8.1489627
8.1341795
8.0475924
7.8765366
7.7945472
7.6961989
7.6011474
7.496565
7.4073637
7.3229646
7.3895297
7.0672555
6.9797848
7.0963317
7.176422
7.4730828
7.5303596
7.5596655
7.4823924
7.1812222
7.1051704
6.6720557
6.6117229
6.5456011
5.9468435
6.020162
6.1131804
6.0404893
6.6075429
6.5336341
6.4536478
6.3903352
5.7668637
5.8632453
5.9632554
6.1329309
6.6510514
6.5696632
6.0270224
6.2504595
6.7254045
6.8030601
6.346327
6.4206635
6.2094602
6.7224559
7.1310362
7.2366556
7.282988
6.9282313
6.7838637
6.2797299
6.4864167
6.5473238
6.3474176
6.1851096
6.0940162
6.6733818
6.6774222
6.7362805
7.1584037
7.1561043
7.4699665
7.4967168
7.4773908
7.1525305
7.1139339
7.1928904
7.2304583
7.1958986
7.5043096
7.5161563
7.2293914
7.2619233
7.5400471
7.529206