/*--------------------------------*- C++ -*----------------------------------*\
  =========                 |
  \\      /  F ield         | OpenFOAM: The Open Source CFD Toolbox
   \\    /   O peration     | Website:  https://openfoam.org
    \\  /    A nd           | Version:  7
     \\/     M anipulation  |
\*---------------------------------------------------------------------------*/
FoamFile
{
    version     2.0;
    format      ascii;
    class       volScalarField;
    location    "170";
    object      nut;
}
// * * * * * * * * * * * * * * * * * * * * * * * * * * * * * * * * * * * * * //

dimensions      [0 2 -1 0 0 0 0];

internalField   nonuniform List<scalar> 
25278
(
6.7944283
6.8056906
6.752246
6.7521922
6.7627404
6.8058459
6.8396613
6.7944624
6.839548
6.9291051
6.8832423
6.8170791
6.8057726
6.7879134
6.5561884
6.7522883
6.8058779
6.7369929
6.3494692
6.8456118
6.9003763
6.9111725
6.8649586
6.8805452
6.9585907
6.8804576
6.8650241
6.9400664
6.9547537
6.9919143
6.9853729
6.927399
6.7458635
6.8855635
6.9411879
6.938884
6.9810162
6.9437267
6.8965131
6.7297828
6.8350643
6.8871792
6.8018562
6.8536146
6.9787949
7.0089795
6.9286644
6.927595
6.9699867
6.9315889
6.876682
6.783004
6.3153423
6.5211798
6.8274102
6.8872762
6.8150208
6.7513717
6.4591722
6.6019053
6.6841056
6.5563749
6.4407735
6.7580017
6.6851467
6.6450796
6.7189374
6.3716823
6.2620471
6.3371544
5.8509356
6.0633719
6.2918529
6.5013279
6.6742566
6.7765361
6.9427451
6.992886
6.9115
6.8777414
6.8202306
6.5614654
6.7415651
6.3705265
6.8309412
6.7481646
6.0883016
5.2809124
5.7934269
6.3054537
6.3809404
5.8517065
5.7825262
4.8441871
4.9663776
5.8629961
6.0210774
6.4968071
6.568395
6.0984116
6.0092633
5.1134457
5.2832157
6.110745
5.5721464
5.5032456
5.3435983
3.986246
3.8947151
3.1652223
4.8399013
4.8572254
3.1614816
3.1727225
4.1019922
4.2383734
3.1913414
5.0379237
5.0147516
5.0094486
6.3674351
6.8305379
6.7627196
5.7689066
4.8285116
3.8831031
3.1588889
4.8358586
6.0850281
6.7476887
6.8196501
6.877482
6.7386318
6.5577103
5.7845571
5.2729137
5.3345191
4.852604
3.153481
3.9730188
4.0866383
3.1628182
3.1789516
5.0313674
5.5612199
5.4937541
6.0118342
5.8536209
4.9496996
5.8375477
6.5499538
6.2981301
6.3737886
6.4903558
6.7324876
6.5622651
6.101071
5.2648085
4.220382
2.6844751
1.4228837
1.4307714
2.6971781
4.1897796
5.5328865
5.4686578
4.9544376
4.9694628
3.0813981
3.0786516
4.0598897
2.6431344
1.4838217
1.365206
0.54938465
0.62917861
1.5441781
1.5378242
0.64323127
0.56352682
1.3792358
1.4933969
2.6330279
4.0332399
5.0958681
5.9957578
6.0849355
5.5074954
4.1601297
3.0359304
3.0399093
4.9126822
6.3336213
5.4447336
4.9225701
5.1364836
3.0473463
1.2650303
0.49445341
0.48019996
1.2462976
3.1015462
5.185642
5.7362851
6.2912457
6.6822525
6.887391
6.9560341
6.9314837
6.9884188
6.9432959
6.754178
6.8409011
6.8921551
6.9845651
6.9501239
6.9040561
6.7407319
6.8111893
6.8612918
6.9338531
6.9817247
7.0042115
6.9288533
7.0027233
6.9761568
7.0155275
7.0066878
7.0110068
7.0069563
7.0100591
6.9461775
6.8896016
6.9895649
6.9840274
6.9376255
6.9738238
6.9287535
6.9021331
6.8534352
6.9373166
6.8383783
6.540532
6.6194714
6.6995841
6.8965626
6.8276866
6.7660547
6.4843142
6.5785787
6.4680686
6.77273
6.8840161
6.7930636
6.3435872
6.7023072
6.3678933
6.2935871
6.6624306
6.7337463
6.3995283
6.4852021
6.5491542
6.6513834
6.762495
6.8015123
6.9483506
6.8915929
6.8782675
6.82818
6.9326154
6.9321513
6.9716995
6.9619281
7.0009228
6.9904894
7.0093042
6.9511435
6.9595388
6.9010137
6.9004603
6.822642
6.9530603
6.9029966
6.9120607
6.7254618
6.8190382
6.7552109
6.8105084
6.8529915
6.8572578
6.8619481
6.9754587
7.0022252
7.0034433
6.9805751
7.0040199
7.007718
6.9854333
6.8836733
6.9430314
6.9298291
6.8087404
6.8497796
6.8374221
6.8243544
6.8003913
6.7657153
6.602516
6.7504825
6.5135066
6.430648
6.1612834
6.2959757
5.8950764
6.2617229
6.5185969
6.756104
6.6807197
6.302921
6.4362086
6.1786837
6.515841
6.6154501
6.311573
5.9087339
5.7630524
6.1488568
5.495736
5.7480634
5.2189007
5.3983201
5.8040896
6.0066873
6.2120635
6.3780287
6.5362869
6.6646428
6.7022711
6.6255668
6.7433629
6.7055117
6.5769071
6.4241323
6.4749364
6.5823028
6.6030275
6.6361127
6.613325
6.7327202
6.7457837
6.8349512
6.7862883
6.7745058
6.657855
6.6783396
6.536936
6.6330908
6.4850074
6.4653397
6.4255953
6.2957109
6.2332308
6.0283885
6.089781
6.2670264
6.3621522
6.6073157
6.8132073
6.8408694
6.639403
6.6217895
6.7405583
6.831095
6.8080264
6.7743992
6.6746573
6.7111466
6.6388723
6.7545753
6.7179657
6.5918176
6.4410827
6.5470479
6.5918932
6.4356494
6.3890237
6.2520304
6.3126709
6.4902424
6.5251733
6.6695608
6.7843328
6.7947779
6.8407801
6.752581
6.6885725
6.5487836
6.6403713
6.4926926
6.4740463
6.3523966
6.379891
6.4005119
6.5167332
6.676065
6.6675911
6.8534983
6.8565978
6.8514399
6.7677978
6.7686596
6.7022317
6.7087416
6.8092743
6.8177444
6.8109934
6.8510146
6.7701119
6.7754898
6.7137836
6.7140756
6.5853236
6.66606
6.6666743
6.6612044
6.6570641
6.5653006
6.5754015
6.4137092
6.5194971
6.5316513
6.5291186
6.4293548
6.4237588
6.5821307
6.4864025
6.6412603
6.7659613
6.7570791
6.6342241
6.6243515
6.6080504
6.738385
6.7241759
6.6917387
6.6482628
6.4336098
6.3177467
5.7768915
5.875708
6.0154248
5.6757457
6.2297817
6.1029778
5.5143402
4.7933336
5.3169126
4.4177058
4.6327263
4.7920529
5.4619829
4.9364633
4.0596241
3.897265
3.1130262
4.2462322
5.1773614
5.9021688
5.2562999
5.7749896
5.9081525
6.03464
5.3299439
5.0838865
4.9283078
3.8237433
3.2302541
2.3803541
2.3716449
3.1768713
4.3513827
3.8840139
4.4371228
4.6446886
4.9002703
5.157482
5.4139467
5.642989
5.8592998
6.0472934
6.2217826
6.2759845
6.0670987
6.0130636
5.8006366
5.873481
6.1070114
6.1518395
6.3178131
6.4206424
6.3100309
6.3347606
6.1698523
6.3666193
6.3372518
6.5114953
6.3940354
6.5685854
6.7110164
6.7915026
6.9423197
6.9298844
6.8678709
6.8834675
6.6854015
6.6325774
6.7494552
6.6317014
6.4096098
6.1923803
5.6155873
5.9809295
5.84001
5.4526459
5.0928437
5.2448861
5.9857893
5.8573316
5.7216821
4.8371794
4.9921316
3.7368348
4.2206737
4.852352
5.4204538
5.2756259
4.3621184
4.7124774
3.8129107
4.6013398
4.757943
3.9685982
3.0212195
2.9758526
4.1256495
3.6893794
2.2217398
2.1937635
2.7630079
3.5437399
4.2976522
4.9034979
5.4308267
5.8290866
6.155787
6.4617989
6.7812869
6.9277668
6.9294219
6.9694466
7.0053651
7.013581
7.0078205
6.9880556
6.9975767
6.8965765
6.9571163
6.9492703
6.8971428
6.8174362
6.9496839
6.9572962
6.905916
6.8986936
6.7275631
6.7147165
6.8115922
6.7454391
6.8032183
6.8478966
6.8545442
6.8516194
6.8529057
6.8471444
6.8031359
6.701368
6.7628458
6.7628685
6.6934123
6.5552196
6.6508656
6.6736315
6.6659237
6.6623711
6.7714958
6.7667026
6.8479023
6.8066009
6.8124008
6.7076436
6.7090341
6.579579
6.6625237
6.5254832
6.5272081
6.5140422
6.6559859
6.5668269
6.4040752
6.3889974
6.5101345
6.3603678
6.4596351
6.466576
6.3838618
6.369688
6.2154308
6.1962646
5.9774154
6.1721588
6.1376149
6.1140869
6.0609746
5.8578926
5.7837508
5.5323196
5.6035319
5.8684775
5.6137856
5.5434164
5.235838
5.3214187
5.3793784
5.6584236
5.9088632
6.1362543
5.9445556
6.1857295
6.1386437
6.3517554
6.531574
6.6768447
6.5918125
6.5440728
6.3640379
6.4792425
6.296842
6.1511327
6.2136663
6.4254175
6.4671935
6.6321127
6.6500713
6.7270238
6.5935452
6.4966217
6.3914966
6.5768974
6.5545033
6.5112506
6.4578541
6.3637308
6.4185613
6.1927015
6.3106463
6.2480249
6.1214886
5.8344081
5.9980266
6.0621193
5.9044259
5.5554108
5.7648708
5.9612669
5.8833143
6.0737914
5.8284829
5.8921951
5.6694901
5.5957229
5.2556481
5.5444723
5.6175298
5.3444548
5.4057584
5.7274573
6.0139371
6.26094
6.2968437
6.4244353
6.2210339
6.0556618
5.872168
6.1570571
6.1151248
6.3572232
6.2438523
6.4675208
6.4921001
6.282818
6.0099852
5.9621707
5.6190559
5.8235403
5.4829014
5.4187712
5.3472261
5.6882428
5.4665599
5.2584763
5.678658
6.0080593
6.2823432
6.5260035
6.8160538
6.836232
6.8033163
6.529269
6.5880873
6.6262017
6.8618171
6.8579109
6.8298759
6.8325653
6.5727521
6.5983118
6.6466945
6.497778
6.5581754
6.6291415
6.6936288
6.7590274
6.7488876
6.6786301
6.6738411
6.5194173
6.6119342
6.6237529
6.5352853
6.5480088
6.6325233
6.6367593
6.7557768
6.6910151
6.5556648
6.4695043
6.6301706
6.5612941
6.3821117
6.364932
6.4573732
6.4400073
6.6120987
6.6031389
6.5242643
6.5355857
6.3420682
6.3158899
6.4192
6.1914488
6.3248651
6.4469467
6.4635177
6.3469161
6.1181395
6.2695998
6.2483221
6.0896216
5.9140792
5.951071
6.2201055
6.0873976
6.051218
5.724802
5.6744175
5.4712936
5.8640399
6.1781373
6.4220582
6.3936098
6.3418555
6.2665079
6.2062429
5.9022262
5.9800291
6.0792609
6.1345361
6.0384983
6.3225025
6.352721
6.0857181
6.0170573
6.3087273
6.2762711
6.2185971
6.1907082
6.1277303
5.7891991
5.8688557
5.9063313
5.9670773
5.9306718
6.2499033
6.2829503
5.9818361
5.577519
5.6301203
5.7316381
5.6740128
5.8106083
5.7482621
5.6089106
5.5361013
5.0529616
5.1456047
5.3425596
5.4100079
5.2146915
5.2798235
5.1271505
5.0600646
5.5695343
5.5023743
5.4477457
5.3755079
4.8193452
4.9092653
4.9906777
4.354747
4.5813431
4.8574167
5.1453427
5.0674559
4.5903598
4.9526654
5.0333441
4.6841935
4.7519771
5.2132457
5.2747626
5.5375974
5.7745589
5.9847781
5.7181321
5.9463401
5.7006058
5.9544533
6.142528
6.3416234
6.183651
5.9590999
5.9230198
6.119497
5.9216651
5.6679886
5.7092851
5.4261752
5.4659134
5.7356504
5.987059
6.1763396
6.3662267
6.3746292
6.1842806
6.0100904
6.225478
6.2081658
5.9884627
5.7433967
5.7707816
6.0049623
6.1806942
6.0006007
6.0208278
6.2310319
6.4158753
6.5750756
6.4756751
6.4838868
6.3774791
6.3643279
6.1417708
6.2863645
6.2987237
6.4230077
6.2414823
6.3859528
6.2040793
6.2034691
6.0266954
6.2062974
6.3878349
6.389159
6.2063639
6.0411284
6.2480458
6.2392129
6.0284788
5.7941919
5.8122563
6.0355181
5.8078542
6.0349779
5.8370992
6.0825375
6.0652367
6.0435281
6.0170838
5.8147948
5.8498704
5.5451947
5.7871491
5.7554707
5.5034359
5.457576
5.1585324
5.0994657
4.6850819
5.0558386
5.3759769
5.6734448
5.3161625
5.2474883
4.9125115
4.9918497
4.621041
4.9919604
4.9139439
4.5278872
4.1175487
4.5487426
4.6178738
4.1894814
4.1169865
3.6102513
3.6935192
4.1926464
4.2575537
4.6857372
5.0540008
5.1064419
5.4248751
5.1112068
4.7435167
4.3187303
4.746357
4.3171427
4.8165859
4.8817678
5.333805
5.5869151
5.632733
5.3916254
5.7716386
5.8150512
6.1192337
6.2441475
6.2637733
6.1464596
5.8544128
6.0119174
6.1609403
5.9067196
5.8805168
5.5831331
5.8144884
5.5370015
5.7886979
5.7640229
5.5001618
5.5300335
5.5552613
5.2690463
5.5654412
5.2956078
5.6169232
5.3694715
5.7133701
5.6749925
5.9836532
5.4481023
5.5018823
5.0873288
5.0181256
5.3203112
5.2681785
5.2142969
4.8063446
5.1619359
5.4669066
5.5040814
5.2095807
4.8503652
5.1955953
5.1530591
4.7978055
4.3801975
4.4435371
4.8665126
4.4564752
4.9490599
4.5849352
5.1309549
5.5865568
5.9557096
6.2479068
6.4724929
6.4569886
6.3924153
6.4102532
6.1648361
6.1283928
6.2162963
5.9118748
5.7852383
5.835807
5.4101445
5.3445207
5.5296045
5.0610988
4.993801
4.9273714
4.6487059
4.7162004
4.0376001
4.4349746
4.3693966
4.3046572
4.2301226
4.7876266
4.5131148
3.8452829
3.9236404
3.9782958
3.6379499
4.4182184
4.4835061
4.3555916
5.0461483
4.9784055
5.5155815
5.5233776
5.9352705
6.2524322
6.531752
6.8041899
6.9283436
6.9279018
6.9008778
6.7403045
6.3546515
6.0243691
6.5012213
6.0185765
5.4835844
4.9650843
4.9828155
5.5503355
4.2188121
3.1082296
3.0999808
4.0846998
5.1244154
5.2933564
6.1072256
6.571455
6.7433662
6.1121214
5.5683498
4.2407481
2.7216488
1.3865294
1.5022508
2.6643068
1.5586431
0.64832394
0.5690733
1.4456035
3.1880135
3.1733655
4.1075648
5.5028131
6.3699032
5.0121918
5.4380542
4.0202958
2.6267196
1.5472115
0.64799109
0.56853107
1.4323376
2.6767903
1.359191
1.4766182
3.0216079
3.0126535
4.144876
5.5001152
6.3316568
4.9050948
4.9135194
5.1272686
3.0180539
1.2416438
0.49943469
0.50075427
1.2702675
3.1357709
5.2008642
6.3200678
6.7843376
6.8776088
6.9335688
6.8480831
6.5285414
6.7562265
6.68913
6.6464773
6.7201332
6.761632
6.448576
6.3748411
6.2653281
6.3454422
6.4686184
6.5650168
6.819202
6.8911636
6.8318608
6.6098872
6.6913007
6.7556678
6.933119
6.9713059
6.9702719
6.9297247
6.833313
6.8302978
6.8590838
6.8636318
6.8386677
6.8190851
6.7823086
6.4646498
6.5330149
6.5939246
6.630526
6.574633
6.5995308
6.6495718
6.7304325
6.8999829
6.9078843
6.8861724
6.871309
6.6402287
6.691513
6.7963209
6.9447459
6.9591757
6.9509197
6.8196583
6.8151081
6.7191173
6.5339441
6.467047
6.4013919
6.3568584
6.3282595
6.3261645
6.3501967
6.3706235
6.3472955
6.0709139
6.1028002
6.0628331
6.0291777
5.6368453
5.6875592
5.7431077
5.6947071
5.1904407
5.2669639
5.1955834
5.1162796
4.4278214
4.5561223
4.7883483
4.8671381
4.1898455
4.1069292
4.5061197
3.8842722
4.3841138
3.8726881
3.8092486
3.7508852
4.2537426
3.7614198
3.7073334
3.6624088
3.1762957
3.2044841
2.4981851
3.1187711
3.0790569
2.4709801
1.9535374
1.9188571
2.7511728
3.5973035
3.410837
4.2318541
4.1785509
3.3595892
2.5091952
2.4770224
1.5445295
1.5950623
0.9238472
1.3221516
1.9142694
2.5786835
3.1647922
3.7071239
4.1541945
4.5706995
4.9305627
5.2744877
5.5752647
5.6471749
5.9212012
6.1649175
6.3743658
6.5503484
6.4997837
6.391824
6.5659033
6.6116142
6.4506992
6.4898344
6.585157
6.4142742
6.4423455
6.2422042
6.2094228
6.0493558
6.2896418
6.245178
6.185158
6.3213228
6.1019449
5.9246838
5.9996482
5.8182157
6.1042957
6.3433001
6.5357079
6.4847517
6.2833407
6.1651488
6.3961473
6.4483868
6.2329421
6.2805596
6.386767
6.5764214
6.6497093
6.6653977
6.516483
6.32232
6.0875003
5.9175561
6.1917479
6.4175794
6.595998
6.7001015
6.6062924
6.8456876
6.8127066
6.7935145
6.7927934
6.9321108
6.9286636
6.8059039
6.7523068
6.7945019
6.8397575
6.788267
6.8652897
6.9114397
6.9019341
6.792262
6.8833678
6.6615347
6.340952
6.2917948
6.3977312
6.7329493
6.7703251
6.6997936
6.3631835
6.4635833
6.572802
6.8245954
6.9359119
6.8517455
6.5355678
6.7627213
6.4782591
6.6135962
6.8349361
6.8934253
6.6940747
6.7573025
6.6459951
6.544824
6.4835701
6.5460111
6.5475656
6.5858671
6.6393693
6.868769
6.862713
6.6554888
6.7348789
6.6404142
6.7027734
6.6896737
6.6869524
6.5364928
6.5496877
6.5598465
6.5652133
6.6438094
6.7614944
6.6984069
6.6392059
6.4818368
6.4728753
6.4589051
6.6257234
6.619581
6.4417049
6.3443365
6.5445436
6.5156711
6.4943423
6.4240716
6.3755716
6.3188993
6.0584398
6.1263862
6.0317509
6.3030986
6.2458233
5.9575228
5.6110333
5.7457322
5.8909291
6.0428231
5.7441505
5.5399613
5.6255982
5.9581088
6.0120846
6.153819
5.8732526
5.6854612
5.7359192
6.0551463
6.3154969
6.2170244
6.4490174
6.3821164
6.3556659
6.0862863
6.1778648
5.8712498
5.8128153
5.4294556
5.3473638
5.1549693
5.2455914
5.6813406
5.7425516
5.7949085
5.9194901
5.5497314
5.4934339
5.311782
5.3723021
5.2253186
5.6959001
6.0612662
6.1289058
6.1662016
6.2502269
6.4800928
6.4916898
6.5524571
6.3659435
6.3845095
6.5718904
6.572136
6.3975635
6.1687946
6.2806172
6.3898035
6.4924554
6.308992
6.299215
6.2852901
6.4764468
6.4622796
6.266789
6.1177223
6.3469174
6.3656376
6.142022
6.161514
6.3797102
6.2653861
6.2459462
6.221745
5.9544358
5.985899
5.8200169
6.1214046
6.0910457
5.7801615
5.4092739
5.6392366
5.8490434
6.0382678
6.0087719
5.9711107
5.7010704
5.743423
5.5012588
5.8128672
5.7693122
5.7142549
5.3936721
5.30683
4.9628444
5.0410276
5.3422893
5.0088642
4.6627895
4.5698224
4.1903558
4.6277958
5.02822
5.1085555
5.4837653
5.2341153
4.7909979
4.6970664
4.2328563
4.3083148
4.6979513
4.268106
3.810829
3.7229131
3.2308392
3.815345
4.367129
4.4461048
4.9710474
4.7156047
4.0953535
4.0100924
3.3630649
3.4056283
3.8694553
3.2826764
2.702458
2.657684
2.1525976
2.9650864
3.7207328
3.7836505
4.4981718
5.09575
5.5773753
5.9593661
6.2557453
6.1959412
5.8856007
5.8426768
6.1657953
6.2256098
5.9187327
5.9765038
6.0161076
6.3098195
6.3385452
6.3105773
6.281252
6.2799834
6.224235
6.1643435
5.9046641
5.7716333
5.2489431
4.9223841
5.0770737
5.3144948
6.026138
5.8939162
5.1628361
4.22446
3.8136937
3.2147707
2.366126
2.3538731
3.8716249
4.3260508
3.1435013
3.0853061
3.8689832
4.7703881
5.4982665
6.0931732
5.7651946
6.3085544
6.4244304
6.2197259
5.6589713
6.0011042
5.8612592
5.2969559
4.3964526
4.6072407
4.7651752
4.0274913
4.9110461
5.4412851
5.6227233
5.3909306
5.1321281
4.8743651
4.6210906
4.4198174
4.30353
4.3098123
4.9198121
5.0100523
5.5081316
5.4486684
5.518267
5.0078539
5.0740893
5.1626028
5.6405393
5.5820598
5.6386053
6.023058
6.0650377
6.101678
6.3757923
6.4176669
6.4312148
6.1967706
6.2764955
6.299856
6.5133536
6.5170584
6.3175685
6.2470654
6.4629833
6.4572368
6.2246786
5.9247285
6.0311931
6.1473203
5.8556767
6.012717
6.0350142
6.1767079
5.9264163
6.0943377
6.0801492
6.0615778
5.8066462
5.7779299
5.5431575
5.5800524
5.8794257
5.9051904
5.6125393
5.8305599
5.8499643
5.6406024
5.3221654
5.5778129
5.5523487
5.5223344
5.4878341
5.4479537
5.400843
5.0703241
5.1219128
4.7834318
5.156458
5.1034209
5.4525471
5.1725409
5.5447326
5.5951136
5.2280913
4.920082
5.3563796
5.2992335
4.8580987
4.3747226
4.764509
4.8237249
4.3943641
4.3336123
4.7269333
4.3255977
4.7063905
4.6414854
4.2348399
3.8298818
4.2600184
4.1798392
4.0141169
3.8785244
2.7979963
2.9850558
3.0988813
2.2832893
3.1565362
3.0395278
2.1738037
1.3179747
1.9908395
1.977819
0.98665614
1.1146746
0.59995904
0.52481359
1.3175957
0.74374189
1.361365
2.0905996
2.0947878
1.3163452
1.3580444
0.65662616
1.2156462
1.088359
0.58049071
0.32403704
0.36759992
0.78727182
0.35024855
0.30844685
0.25517947
0.2748381
0.28335949
0.36206814
0.61178546
1.1333968
2.2520169
3.7129253
4.8507908
5.7284864
5.8645863
6.0022661
5.866643
5.1236405
5.278479
5.0079124
3.766896
4.2801733
4.1748103
3.0412061
3.102271
2.2331506
2.5352124
3.3813528
4.1944469
4.8300687
5.3826006
5.7936795
6.1304703
6.1933046
6.2268577
6.1640515
5.8422389
5.9193865
5.8733829
5.4552508
5.52287
5.4504067
4.933945
5.0227645
4.9211852
4.9912077
5.0595365
5.5851826
5.9862611
6.2852515
6.3160998
6.2840854
5.9798588
6.0293142
6.1025542
6.3627316
6.3333346
6.2779875
6.2180632
6.2961732
6.3551643
6.0996853
5.9982485
5.9206562
6.0289413
5.7086637
5.5634746
5.6371649
5.7786567
5.38699
5.1883074
5.0937618
5.3017765
5.5066716
5.8630095
6.1420456
6.3776269
6.2093087
6.0801254
5.7551283
6.3050188
6.4222252
6.0018236
5.6468042
5.4827056
5.8607818
5.3037052
4.7568749
4.396715
3.8680764
4.0317813
4.9021924
5.44978
4.7900631
4.6312066
5.2305957
5.7622195
6.1732907
6.5098038
6.7354055
6.9000943
6.9869577
6.9118535
6.9291061
7.010193
7.0063014
7.0033727
6.9597684
7.0046942
6.9931731
6.9414442
6.9562711
6.9294651
6.7502957
6.9414552
6.9428307
6.9830937
6.9467546
6.8066727
6.8902827
6.8386499
6.6789303
6.7781516
6.7545481
6.6101976
6.3069562
6.5183924
6.436111
6.2993501
6.6845419
6.8876117
6.3030213
5.5050505
6.1539119
6.2657943
5.9080023
5.408699
5.9089138
5.7642194
6.1764152
6.437319
6.5190573
6.7557103
6.6806239
6.5134355
6.6127843
6.3086799
6.387281
6.6074592
6.8509532
6.8120285
6.7710099
6.8576768
6.9812921
6.9873907
7.0091467
6.9819806
7.0057726
6.9323899
6.9451009
6.8867994
6.8988624
6.9991212
6.989138
7.0087969
6.9765146
7.0147276
6.9586734
6.9503531
6.8985845
6.8153351
6.7627935
6.6983542
6.6348638
6.5647207
6.5047196
6.4466014
6.4073708
6.3825111
6.3809786
6.4025586
6.4402374
6.4497861
6.5047903
6.2991955
6.2764282
6.1986751
6.2266486
6.1726516
6.414742
6.3940404
6.1445894
6.1105142
6.1405712
5.7968709
5.8837015
5.9957757
6.0316498
5.9278727
5.541091
5.6938477
5.641617
5.4761329
5.3409637
5.4157177
5.8475218
5.8052424
5.75127
5.2681212
5.3476926
4.7164803
4.8344496
5.0421485
5.2745472
5.2026386
4.9524032
4.2883484
4.6713867
4.7635284
4.4013548
4.0356501
3.9151876
4.7318943
4.638685
4.5116411
3.6024471
3.8188146
3.743512
3.6846771
3.4810239
3.4422925
4.2920349
4.3126331
4.2503076
4.4033664
4.3409241
3.6051726
3.6674285
3.4372855
3.4733136
3.5171506
4.3781968
4.5414576
5.1619591
5.6506808
5.5903183
5.0937397
5.2588325
5.7022241
6.0562052
6.154069
6.4059654
6.4333861
6.1963404
5.8925511
5.7591622
5.3243967
5.5153633
5.454738
5.8404437
5.9895616
6.2623441
6.4797468
6.4317468
6.523171
6.4705868
6.2663019
6.3280009
6.2122
5.932773
6.0862222
6.022703
5.7214362
5.7974996
5.5952604
5.6583773
5.7122298
6.0355708
6.2997991
6.5031117
6.5866456
6.5653809
6.3733457
6.4061238
6.5082923
6.6582846
6.6413256
6.6020211
6.5550632
6.6405686
6.6849652
6.5427415
6.4395917
6.3792032
6.4911408
6.3120633
6.1710964
6.2327574
6.3661001
6.1566128
5.9860428
5.9093336
6.0926328
5.8507208
5.62755
5.3893114
5.1199036
4.8463835
4.5702425
4.6441728
4.9202074
4.3889614
4.0112044
3.9234131
4.3075697
3.7548426
3.2714256
2.8381723
2.8418464
2.5092596
1.5707738
1.6164908
2.033346
2.0157444
1.9958192
2.862344
3.718666
4.4716569
4.7159949
4.7867928
5.0601716
4.9926305
4.4596747
4.0757171
4.1441942
3.7769922
2.8910365
2.4946209
2.4462166
2.758402
3.2719998
3.8184575
3.198638
3.1566547
2.4998089
3.2352379
2.7529434
2.4593115
1.4751225
1.8754368
1.8285743
2.5048434
2.5164927
3.320894
3.3868343
3.9624922
3.3133958
3.9436039
4.0225758
4.5345033
4.9267583
5.2544
4.9009209
5.2344219
4.9072926
5.2453006
5.2082974
5.1673396
4.835616
5.2037881
5.2470848
4.8849252
4.9313746
5.286601
4.9868042
5.3701793
5.7137274
5.6785464
5.3260726
5.2787105
4.980274
5.0398712
5.4591098
5.5060702
5.5491708
5.744499
5.4103187
5.1545575
5.0982849
4.6386927
4.570109
4.934247
4.8798345
4.4538726
4.5133636
4.068637
3.9989387
4.5030406
4.4383163
3.9340186
3.8725833
3.3316767
3.9310693
4.5131899
5.0396134
5.1024669
4.5789744
4.2208667
4.8490943
4.7834494
4.1566992
3.4513848
3.5035928
3.9940853
3.3850996
2.7535557
2.7242075
2.1194695
2.9930938
3.8340214
4.5634105
4.6283168
3.8897141
3.668319
4.4892843
5.1371341
5.2004901
5.2871902
5.4301938
5.6013945
5.9612401
5.998262
5.6500477
5.4868978
5.885025
5.841852
5.7467125
5.7945083
6.1355697
6.3918062
6.3666761
6.3498249
6.3486115
6.5845932
6.8390007
6.8395505
6.8344741
6.606739
6.4196853
6.4279107
6.1932751
6.1671148
6.1346647
6.3964791
6.4056816
6.1629099
5.8349468
5.8812925
5.960448
6.0597019
5.7373585
5.8869612
5.9136512
6.0529347
6.1878847
6.3152959
6.4329984
6.5384367
6.681648
6.8628932
6.979518
6.9999976
6.9625127
6.8834382
6.9010284
6.8379392
6.9007003
6.9749873
6.943821
6.929499
7.0003465
6.9967657
6.9628832
6.9799457
7.0086856
7.0023228
6.989351
6.9919604
6.9939439
6.9358402
6.9537025
6.8946269
6.9912314
6.9727923
6.8845332
6.8749645
6.9356828
6.9203159
6.9819091
6.9549438
6.9720422
6.9333644
6.9503153
6.9305575
6.9431103
6.9504212
6.990353
7.0010264
7.0066773
6.9650984
6.9705485
6.9822243
6.9688895
6.9066715
6.9221956
6.8537867
6.9541136
6.9352674
6.8436781
6.8378068
6.9110896
6.969425
6.9884397
6.957569
6.9024553
6.9180616
6.9356902
6.886609
6.943451
6.8620782
6.750187
6.7608787
6.8901197
6.9117915
6.9145959
6.7863244
6.8634891
6.8204528
6.8216105
6.8461419
6.9624846
6.9964834
6.9886166
7.0014973
7.0074485
6.99295
6.9712923
6.9893493
6.8921552
6.9521606
6.9346463
6.8825968
6.8734754
6.9707346
6.9911532
6.9812823
6.953957
6.8623915
6.919563
6.9346397
6.8353271
6.8384742
6.8529186
6.8509806
6.8413717
6.8014699
6.811412
6.7097511
6.7717987
6.7616413
6.7063433
6.7037046
6.8035826
6.8411931
6.8315456
6.7920496
6.6980245
6.7523337
6.7628263
6.6583901
6.6573618
6.6804143
6.666815
6.6604159
6.5805512
6.5817705
6.428011
6.5355182
6.5265223
6.428664
6.4284208
6.5783396
6.5742619
6.6515023
6.5197833
6.5298031
6.3935577
6.4644376
6.6581123
6.8395691
6.8543712
6.8536585
6.8436652
6.7640888
6.7746833
6.7139529
6.8151062
6.8045671
6.7097883
6.7065773
6.764964
6.8432343
6.8333682
6.7541967
6.7004915
6.7944063
6.8063009
6.758283
6.8098798
6.9355823
6.9687247
6.9542063
6.8187625
6.735409
6.9084963
6.8874048
6.7289
6.7193149
6.7992243
6.7469752
6.7951025
6.8335912
6.836129
6.6647009
6.6388649
6.6372576
6.741404
6.7420268
6.8217236
6.7815897
6.6876378
6.6955037
6.7553059
6.6524574
6.6531295
6.6602832
6.6627537
6.6697151
6.586337
6.5842151
6.43247
6.5288091
6.5315303
6.5211088
6.4275566
6.5766121
6.5812378
6.4312492
6.2575508
6.3949651
6.3923654
6.476323
6.3951269
6.3904709
6.2528501
6.2493414
6.0468118
6.2203411
6.2139894
6.0532763
6.0583001
6.2548584
6.2534797
6.4254182
6.4219726
6.5696794
6.6934116
6.7928727
6.8319104
6.8203508
6.7798018
6.6859422
6.7407221
6.7536774
6.6510428
6.6641715
6.6385388
6.8209861
6.8192069
6.8086845
6.7666894
6.7798111
6.680295
6.7403043
6.7285608
6.6725101
6.5499697
6.6277382
6.6363548
6.6407938
6.563068
6.4157668
6.5097012
6.5237883
6.387888
6.4629898
6.4449898
6.3756315
6.5097438
6.4971288
6.4034135
6.410186
6.5567969
6.4720123
6.6142971
6.7311711
6.7847834
6.9132162
6.9491661
6.9297663
6.9421021
6.943585
7.0006224
6.9894195
6.9815423
6.9700914
6.9683201
6.9342556
6.9531923
6.8527915
6.9216552
6.9060069
6.8423813
6.8470459
6.8194781
6.805488
6.7965101
6.7973992
6.808935
6.7666605
6.7531562
6.6586473
6.716526
6.7295532
6.6666513
6.5436911
6.6267343
6.646028
6.6216173
6.6124851
6.7164697
6.7051171
6.7861875
6.7395491
6.7530262
6.6530053
6.6452577
6.52338
6.6044961
6.4745281
6.4861836
6.485699
6.6163435
6.5363533
6.3903926
6.3976082
6.5000457
6.3649332
6.4422291
6.6463428
6.8198817
6.8062237
6.622241
6.6130212
6.7169102
6.7970838
6.797959
6.8097395
6.8096553
6.7293785
6.673579
6.7678522
6.7812607
6.681531
6.5580051
6.5645801
6.6418587
6.5105349
6.5248072
6.4236557
6.5716688
6.4862624
6.6297857
6.6350046
6.7475162
6.689347
6.7012482
6.6971812
6.7569669
6.7655228
6.644914
6.6427562
6.56868
6.5687445
6.7059921
6.6478811
6.6413985
6.4913043
6.4885689
6.4084168
6.5850435
6.579448
6.4144119
6.4187124
6.4925146
6.5676744
6.6401512
6.4944878
6.4959358
6.4954731
6.3964412
6.3999659
6.1954878
6.3184591
6.3192188
6.3176182
6.4910656
6.3993548
6.563633
6.490228
6.6357285
6.6457624
6.587308
6.5772121
6.4186536
6.2132921
6.3053013
6.304018
6.4008526
6.1997555
6.2010579
6.0816463
6.0761017
6.0665187
6.2995866
6.2918254
6.1860681
6.1991139
5.935387
5.9520823
6.2081771
6.1181875
6.350567
6.5381947
6.6585074
6.8498081
6.9332377
6.910468
6.8499265
6.8877504
6.865013
6.7060891
6.6383129
6.8272847
6.8020604
6.8256889
6.8239728
6.8440608
6.8697131
6.6613092
6.6167749
6.6168322
6.6111834
6.6509388
6.5349495
6.5814711
6.6373567
6.6909901
6.6768272
6.7343833
6.6224538
6.5523305
6.5590799
6.3958502
6.3906943
6.4800544
6.3092502
6.417088
6.4111794
6.5102349
6.4975651
6.6283589
6.5507507
6.4040929
6.2354872
6.3649189
6.3758835
6.3773731
6.388578
6.3869785
6.2138906
6.2245726
6.2153455
6.2220827
6.397664
6.2545033
6.2567308
6.0567817
6.0515655
5.8270201
6.0493287
6.0509539
5.8344902
5.8235571
5.5761346
5.5925582
5.8369736
5.8442589
6.058232
6.2236902
6.2133155
6.3860172
6.0588722
5.8462202
6.0543079
5.847369
6.060387
6.2554304
6.2526226
6.2471206
6.0553886
6.2063622
6.2206239
6.0595952
5.8484896
6.0569681
6.2203218
6.2061465
6.3769306
6.2461862
6.2511679
6.0585185
6.0546745
6.0512043
6.2414353
6.235014
6.3647052
6.1950535
6.2100027
6.0490512
6.2101285
6.1951356
6.0455334
6.0515918
6.2419344
6.1066668
6.3034533
6.4733417
6.6157629
6.7328187
6.7198788
6.6078104
6.5379255
6.6619395
6.6769853
6.5459197
6.3845926
6.3777671
6.4661669
6.2968859
6.1860211
6.1916413
6.1964435
6.1996818
6.314205
6.1146321
6.1160514
6.1151717
6.1114547
6.1046946
5.8652885
5.8764563
5.6831065
5.955977
5.9432266
5.6641145
5.3531794
5.5989726
5.6155667
5.3297253
5.3061538
5.2778988
4.9744778
4.6302383
5.0363406
4.70702
4.2187376
4.1423501
4.5725105
4.1400549
4.5493779
4.4960083
4.8620237
4.8137962
4.7624138
4.359896
4.3003
3.894475
3.9551235
4.384645
3.9534676
3.8926923
3.8279045
3.76352
3.3136076
3.7376465
3.2841954
3.3539541
3.7694707
3.228116
2.8104631
2.7373989
2.358157
2.8689769
2.9227171
3.385266
2.8749648
3.3256524
3.2589154
2.7995048
2.388062
2.4451329
1.9992448
2.4153794
2.4636753
2.8602398
3.2805658
3.8331518
3.8935973
3.3340842
2.9119859
3.4747214
3.4149895
2.980972
3.4469785
3.5069256
2.9798589
3.4389809
3.3820597
2.926594
2.4939224
2.5447134
3.0387996
2.5141716
2.0851687
2.0405102
1.533221
1.8733627
2.2117343
2.6262961
2.5974632
1.9084368
1.5033636
2.1838952
2.1577691
1.4930586
0.92274461
0.87211232
1.2544409
0.82956369
0.48488122
0.5519363
0.38186892
0.72304305
1.2199483
1.8204482
1.8424422
1.2306157
0.98973092
1.5057251
1.4764026
1.9392308
1.4989093
1.8731143
2.246966
2.7075734
2.7347699
2.2773375
1.6109367
2.0734653
2.069252
1.5974231
1.285351
1.2959022
1.8957318
1.5288351
1.0281218
1.0110268
0.61787614
0.78038043
1.0155522
1.4777787
1.416057
2.1380415
2.9710927
2.6775803
3.5841439
4.3661055
4.4270532
3.6229896
2.6744443
2.6783192
3.0222642
2.1069058
1.619676
1.6746266
1.7325643
1.7711634
2.696106
3.5251158
3.5165139
3.5739653
4.3589989
5.0029243
5.5149434
5.9164594
5.8404934
5.8794395
6.191657
6.2514461
5.9532194
6.0099819
5.9743803
6.0208632
6.3094058
6.3345401
6.3057397
6.3496539
6.6023836
6.8438151
6.8121559
6.8260928
6.875522
6.9728031
6.9710364
6.931779
6.8340631
6.6056879
6.6528956
6.8614152
6.867274
6.635988
6.7213793
6.9099583
6.8891885
6.6951512
6.7969339
6.945808
6.9347682
6.9816764
7.0103182
6.9290507
7.0062768
6.9991169
6.9598626
6.9512994
6.9012836
6.7315723
6.8194416
6.8150992
6.897931
6.8858806
6.9875127
7.008626
6.9806317
7.0053543
6.9826015
6.9473903
6.9872791
6.9300246
6.7500636
6.9009969
6.7356623
6.8065324
6.8887114
6.940876
6.940874
6.8369643
6.6749999
6.5080837
6.2937965
6.1668733
6.3005883
6.6081328
6.7508973
6.7723
6.4273363
6.5104349
6.2502246
5.8929676
5.7465604
5.4771862
5.196319
5.3764847
5.8779185
5.7295316
6.1363021
6.4210209
6.2793043
6.6771302
6.8851728
6.9401682
6.9553796
6.9925319
7.0041815
6.9592756
7.0029429
6.9755533
7.0142656
7.0083401
6.9890446
6.8977778
6.9493547
6.9573127
6.9435896
6.9308608
6.8571049
6.7114768
6.6409394
6.5578192
6.4763185
6.3876738
6.3112122
6.2395552
6.2968932
6.0226348
5.9484196
6.0475492
6.1156812
6.3678315
6.4166625
6.4418596
6.3762937
6.1202204
6.0553985
5.6867265
5.6352858
5.5786518
5.0689506
5.1317144
5.2110308
5.1488014
5.6314613
5.5683029
5.4994299
5.4454543
4.9153057
4.9974451
5.0825427
5.2271843
5.6684073
5.5984244
5.1372739
5.3274588
5.7310846
5.7979598
5.4091032
5.4728577
5.2928776
5.7294479
6.0773424
6.1673118
6.2069136
5.905038
5.7820379
5.3530015
5.5291328
5.5812253
5.4108997
5.2725673
5.1949062
5.6880047
5.6914072
5.7416455
6.1009094
6.0989874
6.3656602
6.3884044
6.3721234
6.0959218
6.0630234
6.1303407
6.1623591
6.1329059
6.3954016
6.4048137
6.1612601
6.1889831
6.425158
6.4165685
6.4530095
6.4263643
6.4122402
6.1580141