/*--------------------------------*- C++ -*----------------------------------*\
  =========                 |
  \\      /  F ield         | OpenFOAM: The Open Source CFD Toolbox
   \\    /   O peration     | Website:  https://openfoam.org
    \\  /    A nd           | Version:  7
     \\/     M anipulation  |
\*---------------------------------------------------------------------------*/
FoamFile
{
    version     2.0;
    format      ascii;
    class       volScalarField;
    location    "170";
    object      p;
}
// * * * * * * * * * * * * * * * * * * * * * * * * * * * * * * * * * * * * * //

dimensions      [1 -1 -2 0 0 0 0];

internalField   nonuniform List<scalar> 
25278
(
101315.57
101314
101315.66
101315.56
101318.7
101313.55
101314.5
101315.49
101314.84
101309.53
101311.46
101313.23
101314.11
101315.88
101323.2
101315.72
101314.12
101320.83
101324.54
101318.94
101313.77
101313.76
101314.08
101311.45
101306.5
101311.23
101313.88
101311.22
101318.76
101310.85
101307.51
101314.83
101307.7
101312.07
101304.68
101314.2
101308.91
101303.92
101308.53
101300.94
101303.88
101298.54
101301.07
101291.99
101299.25
101301.45
101309.38
101307.49
101300.58
101308.32
101308.3
101319.15
101313.79
101311.37
101313.78
101306.55
101305.07
101312.09
101303.52
101305.91
101301.09
101301.94
101303.55
101307.16
101316.23
101315.93
101307.1
101304.47
101308.77
101308.98
101326.86
101316.24
101317.11
101309.62
101316.52
101305.73
101304.57
101310.67
101313.43
101318.91
101323.03
101322.96
101320.58
101324.19
101319.02
101323.99
101325.39
101334.2
101330.93
101331.27
101325.44
101324.56
101331.21
101331.91
101333.31
101324.2
101331.44
101331.52
101323.25
101323.14
101331.82
101337.79
101335.82
101322.68
101326.53
101335.36
101327.01
101333.29
101331.56
101334.47
101336.7
101328.66
101340.7
101353.82
101339.1
101337.98
101358.9
101333.4
101341.61
101341.44
101323.91
101318.9
101318.62
101331
101331.73
101331.14
101334.06
101336.73
101325.22
101323.93
101322.99
101318.76
101320.38
101322.87
101331.01
101334.1
101326.44
101328.48
101340.09
101332.72
101338.47
101353.48
101358.45
101333.06
101326.12
101335.15
101331.38
101323.76
101333.01
101323.81
101322.9
101331.47
101325.2
101331.64
101320.38
101322.91
101322.12
101335.44
101337.55
101330.32
101344.7
101347.7
101331.06
101338.76
101327.1
101335.76
101342.16
101334.29
101358.27
101353.84
101339.83
101338.21
101344.41
101348.62
101406.33
101364.16
101343.61
101341.55
101363.91
101412.83
101349.14
101343.31
101336.59
101338.54
101337.59
101331.55
101322.41
101326.33
101337.17
101361.41
101354.81
101342.32
101324.35
101335.44
101334.42
101331.34
101350.76
101328.92
101416.77
101396.62
101326.45
101347.95
101330.62
101321.94
101320.34
101319.66
101312.03
101318.69
101314.15
101306.61
101314.07
101307.16
101303.68
101298.15
101308.78
101302.99
101307.57
101300.22
101300.49
101291.19
101291.88
101297.94
101305.51
101308.95
101305.22
101297.97
101294.85
101300.15
101300.46
101303.15
101301.77
101290.2
101286.96
101296.49
101298.28
101300.79
101299.76
101306.53
101313.16
101318.6
101307.64
101313.32
101310.69
101305.27
101300.35
101306.01
101303.65
101310.71
101302.18
101300.99
101302.18
101306.24
101307.06
101318.15
101312.22
101315.45
101307.7
101306.64
101314.4
101305.4
101302.88
101290.58
101290.47
101289.88
101290.53
101284.46
101297.57
101295.02
101298.45
101300.79
101298.32
101295.95
101297.94
101290.84
101291
101293.98
101297.86
101291.68
101285.96
101284.25
101285.05
101281.22
101292.71
101290.68
101288.04
101278.38
101280.89
101279.54
101275.22
101283.38
101284.15
101289.43
101298.18
101305.51
101305.76
101298.13
101303.29
101301.98
101297.56
101287.79
101290.74
101292.28
101296.63
101294.88
101291.28
101293.47
101301.51
101303.34
101299.41
101305.11
101296.21
101304.64
101298.77
101299.84
101300.86
101303.56
101296.2
101304.93
101316.32
101320.11
101304.83
101298.56
101309.03
101299
101299.66
101300.82
101314.45
101319.34
101326.92
101314.61
101299.02
101302.38
101288.89
101276.88
101297.02
101278.43
101296.41
101284.22
101283.8
101289.28
101289.01
101289.05
101283.19
101288.27
101287.41
101295.24
101285.44
101280.39
101289.17
101278.75
101279.31
101295.09
101284.19
101282.79
101282.16
101281.06
101279
101287.38
101272.18
101271.14
101278.38
101286.43
101278.66
101287.39
101284
101293.3
101290.13
101285.5
101296.57
101291.09
101280.42
101289.52
101278.72
101293.57
101301.52
101303.25
101284.16
101283.59
101288.96
101288.09
101287.91
101282.72
101287.89
101296.35
101295.36
101278.47
101278.58
101278.72
101286.5
101287.31
101281.44
101281.78
101281.84
101283.12
101295.11
101279.05
101280.67
101278.88
101287.52
101272.27
101271.4
101276.79
101274.89
101269.93
101263.65
101272.24
101280.54
101287.19
101278.11
101289.64
101278.28
101273.23
101276.97
101276.72
101281.06
101273.06
101282.43
101286.61
101280.9
101272.34
101275.69
101277.2
101273.25
101279.02
101274.39
101281.56
101279.19
101274.48
101273.5
101268.84
101271.3
101262.66
101275.21
101269.21
101267.35
101271.88
101269.08
101273.25
101274.05
101283.95
101274.86
101275.74
101279.8
101289.09
101288.96
101295.97
101298.41
101300.21
101316.26
101321.45
101310.49
101301.34
101303.72
101301.12
101315.06
101303.08
101328.03
101332.4
101327.7
101324.55
101304.34
101303.66
101306.55
101305.65
101298.02
101342.07
101361.09
101318.28
101325.32
101330.26
101325.3
101306.12
101304.5
101309.27
101312.4
101315.29
101358.27
101349.25
101318.24
101317.21
101318.38
101316.33
101320.69
101316.44
101306.33
101309.16
101294.64
101296.53
101291.03
101291.8
101287.42
101296.94
101293.49
101274.69
101277.1
101275.39
101283.2
101284.25
101276.2
101285.91
101278.2
101285.52
101283.15
101271.67
101274.78
101276.73
101281.59
101281.91
101282.26
101289.17
101285.41
101298.21
101301.31
101299.86
101296.61
101284.12
101291.1
101291.43
101298.88
101300.81
101301.89
101303.96
101301.63
101310.74
101303.56
101319.1
101309.89
101305.65
101307.56
101327.15
101316.98
101313.1
101319.5
101316
101306.12
101303.66
101333.3
101328.09
101328.37
101296.68
101324.79
101303.88
101304.11
101316.35
101342.47
101363.5
101359.34
101316.53
101312.71
101330.17
101292.13
101317.49
101292.05
101305.11
101292.5
101303.15
101292.47
101301.61
101299.86
101298.02
101299.13
101301.29
101295.12
101298.23
101295.29
101292.12
101285.26
101286.53
101292.39
101286.25
101282.79
101293.77
101291.58
101289.74
101292.77
101280.15
101279.96
101282.1
101279.73
101276.27
101283.28
101284.33
101287.52
101278.13
101289.71
101282.39
101277.31
101278.71
101273.35
101277.43
101274.68
101278.8
101272.22
101280.58
101274.14
101272.69
101281.62
101286.87
101284.12
101274.39
101276.46
101278.18
101274.03
101279.15
101275.52
101262.58
101271.35
101281.49
101273.82
101268.91
101269.9
101263.39
101272.55
101270.04
101270.18
101264.65
101275.57
101263.9
101266.06
101258.68
101252.62
101264.21
101263.61
101274.45
101282.89
101275.03
101283.54
101277.96
101283.85
101278.26
101283.94
101269.07
101278.8
101261.64
101267.09
101269.44
101275.96
101275.48
101276.66
101284.57
101286.95
101288.33
101296.2
101288.68
101291.15
101284.39
101288.88
101291.5
101290.73
101286.52
101289.33
101281.02
101281.77
101282.53
101289.27
101280.08
101279.04
101278.17
101287.15
101287.74
101295.15
101299.08
101294.1
101289.9
101289.94
101288.94
101289.37
101285.56
101293.43
101294.09
101286.37
101286.78
101287
101285.08
101286.49
101280.08
101286.58
101292.22
101282.08
101281.87
101290.83
101274.81
101286.59
101279.2
101281.11
101265.24
101272.68
101275.08
101280.01
101275.94
101277.9
101272.86
101271.23
101268.95
101274.53
101280.28
101281.37
101280.52
101282.57
101281.99
101277.36
101273.31
101279.31
101273.78
101274.96
101271.76
101280.14
101297.12
101287.6
101280.34
101290.91
101301.06
101291.65
101301.91
101291.99
101301.65
101297.24
101297.07
101283.61
101283.57
101278.53
101289.51
101291.57
101291.58
101289.26
101278.04
101277.52
101278.27
101267.34
101267.13
101270.66
101270.3
101274.5
101284.33
101279.9
101273.63
101274.68
101276.08
101275.39
101273.57
101272.2
101274.01
101275.67
101282.67
101281.53
101273.72
101271.11
101280.04
101278.88
101269
101267.81
101269.84
101271.5
101281.58
101277.02
101272.23
101277.89
101269.74
101271.93
101273.3
101268.87
101270.88
101273.14
101271.71
101268.85
101262.15
101265.66
101267.57
101265.11
101262
101257.86
101265.96
101263.25
101266.87
101259.47
101267.59
101265.26
101272.15
101276.8
101285.58
101287.38
101294.95
101292.47
101299.56
101289.27
101291.59
101290.41
101281.31
101281.29
101284.96
101282.78
101276.75
101276.58
101284.55
101287.42
101294.94
101294.48
101302.96
101292.36
101292.71
101292.21
101281.94
101282.18
101287.01
101283.97
101276.77
101271.72
101271.38
101272.05
101280.33
101280.2
101287.56
101288.67
101300.55
101285.54
101289.16
101286.86
101274.21
101274.45
101265.52
101264.04
101275.02
101281.04
101289.51
101290.2
101305.43
101291.18
101290.85
101289.69
101283.75
101283.14
101280.9
101281.07
101294.23
101271.78
101287.38
101277.45
101279.63
101260.64
101270.07
101259.14
101261.39
101265.4
101268.65
101261.53
101265.91
101260.33
101269.71
101264.57
101283.35
101271.97
101266.33
101269.77
101264.04
101275.3
101267.39
101260.7
101254.52
101244.86
101252.65
101261.06
101253.18
101273.05
101275.72
101261.71
101256.94
101264.05
101266.3
101259.06
101252.98
101249.04
101259.8
101261.24
101256.6
101254.23
101262.18
101267.67
101272.42
101269.53
101271.33
101268.58
101266.89
101260.31
101263.94
101266.02
101269.74
101264.17
101273.05
101266.33
101249.49
101254.22
101250.08
101265.02
101273.04
101266.78
101257.33
101263.79
101262.04
101254.32
101246.67
101249.55
101259.24
101249.7
101257.39
101250.6
101259.47
101257.18
101259.35
101262.51
101258.29
101253.88
101242.9
101250.01
101253.9
101248.61
101257.85
101252.07
101263.38
101256.81
101260.3
101265.47
101268.47
101274.74
101291.31
101286.92
101273.83
101272.4
101272.39
101284.48
101263.64
101281.63
101297.92
101269.41
101269.85
101288.18
101251.64
101265.51
101264.82
101244.76
101250.59
101257.91
101245.86
101254.47
101248.3
101237.61
101224.92
101239.29
101234.51
101249.05
101236.07
101249.22
101253.11
101247.16
101241.47
101254.14
101251.09
101260.54
101263.65
101265.17
101261.91
101251.98
101257.06
101261.92
101253.72
101251.72
101240.01
101247.67
101237.29
101246.61
101248.75
101239.35
101236.34
101239.36
101226.92
101240.82
101229.41
101242.32
101232.28
101246.84
101244.68
101255.64
101237.63
101239.09
101220.79
101220.28
101229.84
101233.24
101241.03
101225.3
101237.23
101245.64
101239.86
101229.39
101212.95
101226.88
101234.54
101223.23
101206.22
101192.1
101214.52
101203.65
101225.9
101209.09
101231.19
101248.66
101259.98
101267.75
101279.12
101274.87
101272.31
101276.83
101266.78
101270.14
101270.67
101264.71
101263.94
101258.39
101247.07
101255.17
101255.66
101241.99
101254.63
101269.98
101270.23
101254.83
101242.25
101241.5
101259.07
101277.77
101291.97
101310.03
101306.77
101277.7
101281
101258.91
101257.89
101270.39
101251.28
101252.08
101264.77
101275.68
101281.49
101282.14
101282.64
101286.67
101284.03
101297.04
101300.03
101307.64
101313.92
101321.05
101324.99
101331.09
101331.25
101332.46
101335.06
101343.43
101336.29
101326.56
101336.84
101362.59
101356.26
101338.17
101338.82
101337
101324.14
101323.3
101320.98
101322.69
101326.55
101340.11
101328.77
101355.35
101348.21
101336.22
101339.86
101367.97
101412.7
101342.03
101361.16
101355.27
101340.81
101334.97
101324.76
101340.7
101335.26
101337.34
101335.77
101337.57
101368.11
101416.25
101338.79
101330.45
101344.47
101341.6
101354.52
101360.05
101336.09
101326.21
101324
101342.11
101333.85
101329.75
101346.2
101321.91
101430.5
101414.93
101339.36
101354.73
101333.47
101314.9
101319.35
101308.43
101308.65
101319.17
101311.77
101312.1
101316.68
101315.93
101307.14
101307.61
101304.18
101305.05
101309.06
101309.73
101304.22
101302.8
101305.41
101307.05
101314.09
101306.84
101302.04
101292.58
101301.85
101301.1
101299.66
101298.2
101289.3
101291.64
101292.07
101290.08
101297.71
101302.07
101301.56
101292.81
101292.71
101284.47
101279.59
101278.51
101277.99
101279.33
101281.52
101293.3
101290.32
101297.04
101300.2
101292.1
101285.35
101286.77
101298.8
101292.35
101294.43
101284.23
101283.59
101281.35
101273.56
101276.12
101272.98
101274.59
101273.03
101273.19
101273.7
101277.34
101276.87
101265.22
101265.36
101269.38
101269.41
101262.26
101262.23
101255.32
101254.98
101241.08
101241.2
101251.93
101252.34
101233.82
101233.89
101241.22
101228.69
101209.45
101224.88
101224.14
101196.31
101217.86
101196.95
101218.42
101238.38
101252.79
101249.3
101267.18
101317.41
101304.61
101269.85
101261.19
101259.47
101284.79
101249.79
101280.09
101257.54
101269.03
101280.76
101282.31
101285.08
101316.94
101287.58
101322.55
101269.52
101254.82
101259.71
101321.48
101363.3
101298.01
101339.05
101283.72
101306.92
101286.76
101298.73
101284.17
101291.24
101286.74
101279.77
101282.53
101284.72
101286.9
101288
101288.57
101283.8
101289.7
101287.52
101288.95
101280.6
101282.02
101281.94
101277.97
101273.18
101276.94
101275.47
101279.97
101286.46
101290.15
101290.93
101286.66
101280.44
101286.81
101285.62
101286.48
101288.55
101294.8
101298.3
101288.94
101284.76
101292.18
101288.43
101289.5
101280.04
101281.09
101287.45
101280.63
101281.22
101278.64
101275.99
101271.72
101269.89
101274.95
101277.91
101286.9
101282.88
101281.98
101296.23
101295.17
101299.99
101300.26
101298.29
101306.28
101313.36
101315.32
101315.36
101314.4
101315.54
101313.51
101313.19
101313.07
101318.27
101307.08
101314.82
101311.81
101306.83
101302.54
101305.56
101305.76
101315.23
101306.76
101301.51
101300.16
101303.47
101307.37
101318.42
101309.97
101311.14
101301.59
101304.34
101313.4
101305.52
101299.38
101289.65
101289.23
101289.97
101290.41
101281.29
101281.62
101275.39
101276.46
101288.33
101289.83
101275.41
101278.04
101270
101268.58
101278.18
101272.39
101274.18
101272.84
101271.16
101272.28
101274.59
101281.89
101279.21
101278.82
101269.48
101268.73
101270.86
101281.03
101276.79
101272.94
101271.39
101270.73
101280.37
101281.15
101287.2
101294.63
101301.05
101291.13
101289.92
101290.94
101290.67
101297.21
101287.83
101298.98
101299.78
101292.59
101293.16
101287.94
101281.01
101287.72
101286.88
101279.51
101280.53
101275.74
101274.64
101268.66
101273.73
101276.95
101276.58
101285.42
101280.87
101283.34
101280.59
101281
101280.83
101287.82
101287.77
101291.59
101285.57
101290
101288.75
101280.67
101272.76
101273.15
101267.09
101275.62
101275.51
101266.83
101265.72
101272.43
101275.88
101276.16
101269.41
101270.34
101274.78
101278.56
101275.74
101268.92
101266.4
101264.93
101275.83
101266.98
101260.43
101263.94
101267.44
101270.51
101265.39
101263.7
101265.76
101271.53
101273.17
101267.86
101265.55
101270.87
101268.61
101262.37
101260.03
101266.24
101263.12
101266.06
101269.26
101262.96
101258.5
101254.98
101263.41
101267.31
101260.55
101252.35
101255.47
101259.52
101263.22
101269.34
101276.03
101269.2
101262.38
101259.26
101266.55
101273.62
101282.65
101282.14
101276.04
101288.21
101275.31
101275.49
101272.83
101273.71
101265.13
101282.58
101298.04
101288.31
101279.18
101281.46
101282.78
101281.9
101274.31
101290.76
101273.44
101272.06
101267.44
101269.29
101255.85
101287.8
101317.61
101294.03
101280.94
101283.28
101285.66
101284.4
101280.2
101307.11
101275.78
101272.42
101265.13
101267.93
101255.71
101284.27
101330.24
101294.56
101284.05
101286.23
101290.19
101289.41
101291.24
101294.39
101302.24
101291.54
101289.94
101300.39
101292.23
101291.55
101280.87
101281.17
101287.17
101284.15
101281.51
101285.15
101286
101292.94
101301.55
101305.53
101325.7
101328.86
101315.56
101311.14
101307.26
101303.38
101324.8
101315.82
101359.55
101358.85
101345.64
101317.47
101311.8
101318.02
101312.82
101312.76
101336.43
101294.16
101327.82
101301.36
101315.26
101320.97
101316.35
101299.08
101300.02
101301.87
101299.62
101308.75
101332.72
101327.4
101322.38
101301.44
101301.99
101303.83
101301.38
101288.74
101294.65
101292.87
101306.58
101305.4
101314.46
101315.97
101315.5
101289.66
101292.44
101303.51
101303.19
101289.83
101291.25
101276.28
101276.23
101281.59
101281.49
101272.21
101275.55
101267.98
101268.56
101273.48
101270.6
101274.31
101265.69
101267.07
101263.95
101266.54
101275.9
101264.13
101261.89
101272.78
101262.46
101262.06
101254.09
101256.61
101259.94
101250.93
101255.47
101256.05
101261.09
101253.36
101259.11
101257.29
101259.87
101250.76
101254.79
101250.1
101244.24
101254.91
101252.09
101240.61
101247.99
101250.53
101242.23
101229.77
101240.85
101237.84
101240.89
101246.78
101255.51
101266.32
101258.39
101246.46
101239.27
101250.38
101262.08
101266.48
101265.52
101273.37
101263.5
101254.62
101251.97
101261.82
101272.19
101263.31
101257.23
101260.05
101243.45
101228.67
101247.81
101252.11
101245.81
101253.58
101266.47
101263.85
101262.89
101264.97
101288.7
101307.32
101369.55
101308.07
101342.52
101304.15
101291.6
101305.45
101344.81
101261.6
101370.11
101455.02
101327.7
101326.61
101403.55
101265.13
101299.72
101312.31
101385.82
101319.07
101329.3
101449.63
101326.02
101364.94
101272.44
101408.79
101334.95
101303.08
101432.54
101489.31
101650.55
101467.19
101422.31
101448.11
101207.11
101227.09
101496.73
101282.53
101416.97
101323.8
101362.43
101318.41
101327.81
101308.59
101306.61
101327.48
101319.97
101311.12
101315.21
101324.2
101317.68
101363.71
101341.59
101317.62
101322.55
101326.07
101289.29
101317.86
101291.52
101305.67
101292.38
101302.41
101294.18
101295.81
101303.96
101293.61
101292.74
101293.3
101291.01
101290.32
101305.88
101293.75
101290.64
101292.21
101276.91
101266.39
101272.61
101277.37
101283.7
101285.49
101288.19
101282.67
101277.34
101278.19
101283.33
101285.22
101292.83
101299.29
101302.73
101296.05
101291.62
101292.72
101290.15
101293.41
101302.27
101300.94
101290.21
101289.22
101288.8
101291.17
101287.13
101293.47
101283.27
101294.67
101287.33
101294.51
101303.06
101316.5
101321.91
101317.62
101302
101303.07
101305.53
101304.96
101311.91
101333.71
101329.19
101326.95
101299.31
101306.94
101308.28
101305.42
101305.71
101325.18
101301.23
101316.25
101300.71
101310.61
101302.15
101309.09
101307.95
101313.97
101309.62
101302.06
101301.87
101305.87
101306.9
101306.19
101311.16
101311.62
101318.87
101315.19
101308.62
101314.42
101305.45
101309.25
101304.57
101302.08
101299.79
101304.91
101316.87
101306.43
101305.93
101300.71
101301.35
101297.79
101305.84
101321.17
101319.84
101312.55
101320.45
101328.09
101320.13
101304.8
101302.71
101304.38
101302.44
101315.24
101299.87
101306.27
101297.83
101305.72
101316.82
101309.64
101300.12
101301.01
101281.32
101287.43
101295.85
101297.56
101303.59
101293.22
101299.92
101298.27
101302.45
101299.02
101303.72
101293.63
101292.18
101289.16
101286.71
101292.97
101296.02
101298.77
101298.94
101295.78
101288.01
101293.61
101287.63
101276.27
101276
101272.2
101272.27
101268.79
101268.85
101266.2
101266.23
101265.01
101264.94
101265.25
101265.14
101276.59
101277.56
101266.52
101265.49
101264.12
101264.86
101263.38
101275.88
101275.85
101263.22
101262.44
101262.51
101251.18
101254.65
101256.86
101258.23
101255.42
101242.32
101246.38
101245.21
101242.58
101235.92
101237.89
101252.66
101252.7
101251.16
101237.22
101240.2
101215.26
101209.26
101222.13
101229.65
101226.72
101222.14
101202.63
101202.96
101206.92
101200.68
101182.6
101167.88
101203.96
101214.61
101212.46
101180.63
101183.48
101212.14
101235.65
101237.32
101258.36
101271.04
101273.26
101287.37
101285.22
101318.78
101294.73
101282.72
101286.11
101262.35
101242.36
101254.96
101253.59
101265.61
101272.43
101281.95
101276.33
101276.78
101281.83
101282.54
101282.78
101288.33
101286.81
101278.36
101274.1
101273.94
101268.4
101268.01
101276.61
101281.89
101281.23
101282.21
101283.47
101290.91
101296.21
101299.78
101291.24
101290.46
101291.39
101288.69
101288.32
101295.56
101290.18
101287.29
101289.23
101276.46
101270.61
101275.52
101279.18
101283.21
101288.34
101288.69
101283.11
101279.99
101280.9
101284.1
101283.1
101290.08
101292.16
101299.51
101297.12
101289.93
101290.89
101286.55
101290.63
101292.97
101292.36
101288.43
101288.8
101286.69
101288.59
101283.2
101288.82
101294.09
101293.2
101299.13
101296.4
101311.74
101307.67
101286.05
101283.64
101281.08
101284.9
101280.87
101295.45
101319.92
101307.33
101332.62
101272.17
101276.35
101265.72
101266.54
101283.69
101261.47
101224.23
101249.59
101260.72
101272.18
101273.38
101258.81
101258.21
101272.93
101263.31
101263.72
101248.39
101239.61
101215.12
101218.04
101207.91
101208.35
101221.46
101221.4
101197.68
101230.7
101226.72
101248.16
101245.15
101243.27
101211.72
101218.18
101172.2
101196.67
101164.55
101196.93
101174.04
101171.82
101126.7
101179.2
101167.22
101194.99
101210.21
101225.82
101207.4
101223.24
101206.1
101223.64
101227.55
101235.23
101225.14
101239.6
101231.75
101214.97
101208.57
101227.24
101213.37
101230.91
101245.68
101249.31
101235.86
101243.89
101239.26
101229.1
101244.71
101239.62
101239.47
101246.58
101231.97
101220.58
101221.62
101201.03
101211.25
101219.75
101230.33
101210.9
101197.04
101184.84
101201.59
101224.31
101239.8
101222.57
101242.58
101238.18
101256.63
101263.36
101273.32
101259.27
101246.9
101246.45
101259.44
101273.68
101263
101256.2
101231.63
101231.68
101207.45
101204.23
101234.76
101230.26
101255.81
101263.22
101274.79
101257.86
101242.33
101242.78
101258.63
101265.64
101253.39
101254.12
101256.53
101257.77
101265.89
101260.88
101250.56
101248.19
101259.1
101264.85
101263.77
101256.98
101264.18
101276.42
101273.75
101271.13
101271.96
101274.88
101287.3
101287.17
101288.84
101273.8
101263.95
101273.32
101259.5
101260.03
101259.01
101261.52
101271.01
101258.24
101248.32
101249.98
101253.34
101256.57
101244.59
101250.8
101253.43
101258.76
101263.57
101267.2
101270.67
101266.55
101277.22
101292.1
101298.39
101302.99
101308.47
101311.25
101313.75
101314.63
101313.86
101312.61
101312.84
101309.03
101302.54
101308.43
101306.81
101298.04
101291.44
101299.74
101307.3
101296.82
101298.82
101299.41
101289.13
101287.54
101289.89
101297.61
101293.04
101299.09
101299.95
101308.97
101304.27
101305.35
101297.24
101294.8
101305.7
101307.03
101312.49
101309.2
101310.1
101309.37
101312.88
101314.71
101310.8
101304.76
101309.31
101315.19
101310.81
101310.42
101306.88
101311.61
101314.4
101317.21
101317.22
101311.47
101314.23
101312.9
101317.75
101315.1
101313.83
101312.95
101314
101314.28
101318.34
101315.3
101310.22
101305.2
101303.27
101304.99
101305.4
101292.36
101304.04
101301.9
101307.11
101308.72
101308.27
101301.02
101292.06
101299.39
101299.09
101291.38
101289
101290.06
101300.25
101294.59
101300.64
101298.83
101297.67
101304.84
101306.59
101306.77
101309.67
101301.01
101295.34
101293.69
101284.37
101274.64
101287.25
101288.84
101275.72
101278.92
101275.44
101288.04
101283.31
101286.32
101282.78
101278.8
101290.35
101295.61
101291.62
101295.96
101283.69
101278.36
101293.93
101277.44
101272.03
101281.73
101279.72
101274.91
101271.54
101266.93
101284.65
101277.23
101281.82
101283.23
101289.26
101287.87
101295.59
101278.74
101272.02
101284.32
101293.68
101293.2
101283.8
101274.23
101286.78
101287.09
101274.63
101277.71
101273.94
101286.87
101281.92
101284.75
101282.52
101278.03
101289.65
101294.87
101289.93
101293.55
101280.69
101276.69
101290.42
101295.2
101297.03
101287.76
101284.19
101281.28
101285.68
101294.82
101288.01
101296.54
101297.65
101284.22
101289.15
101283.23
101294.49
101296.15
101309.52
101296.17
101302.13
101303.18
101294.65
101300.93
101299.09
101293.3
101291.72
101285.36
101287.3
101277.69
101281.37
101271.81
101273.83
101278.43
101276.12
101284.09
101277.95
101294.85
101287.43
101287.61
101281.73
101280.46
101277.53
101271.56
101277
101272.97
101264.02
101277.18
101273.03
101266.82
101260.67
101256.35
101278.55
101269.01
101275.97
101278.8
101286.78
101288.96
101294.28
101293.47
101295.05
101291.37
101284.42
101295.45
101302.81
101300.78
101304.21
101293.19
101286.47
101296.61
101309.84
101304.51
101293.63
101301.01
101309.31
101301.38
101304.52
101303.57
101311.16
101309.18
101309.55
101304.1
101297.43
101295.97
101299.92
101301.56
101306.32
101292.38
101284.48
101293.71
101305.5
101298.36
101306.02
101315.01
101312.48
101306.71
101304.34
101304.58
101304.52
101296.35
101306.97
101304.74
101307.06
101308.2
101313.07
101313.12
101309.76
101310.94
101305.61
101311.13
101309.77
101312.4
101308.14
101311.57
101311.69
101315.61
101315.23
101309.8
101307.95
101312.62
101308.75
101306.15
101301.56
101309.58
101314.14
101315.45
101316.18
101311.84
101312.1
101313.02
101306.71
101314.22
101318.99
101313.92
101317.97
101319.27
101310.18
101317.24
101315.89
101317.64
101319.49
101320.99
101315.41
101323.86
101323.56
101320.69
101310.71
101316.66
101320.1
101316.34
101316.75
101310.3
101313.15
101313.78
101307.19
101312.36
101318.79
101312.94
101316.99
101307.73
101305.41
101300.28
101300.2
101310.27
101307.72
101307.77
101299.36
101302.88
101302.72
101298.26
101295.35
101305.62
101291.23
101292.68
101291.75
101290.42
101292.02
101288.02
101288.53
101292.04
101276.65
101284.24
101283.63
101272.16
101275.23
101279.46
101277.53
101273.3
101269.34
101267.91
101281.09
101274.8
101270.56
101268.05
101264.74
101280.99
101272.55
101276.95
101278.84
101281.1
101282.46
101279.16
101275.96
101270.96
101268.58
101273.65
101269.31
101272.99
101277.88
101285.53
101285.83
101284.84
101286.94
101284.97
101287.14
101273.02
101272.4
101289.79
101283.54
101280.72
101282.62
101275.1
101277.81
101275.4
101283.34
101280.54
101271.95
101264.89
101270.41
101265.14
101261.66
101267.31
101260.02
101267.99
101272.62
101269.28
101274.43
101269.41
101286.02
101292.83
101295.3
101305.55
101292.63
101294.51
101304.58
101304.81
101304.99
101302.88
101303.61
101292.44
101292.55
101283.03
101284.13
101278.74
101276.93
101284.49
101294.96
101295.76
101280.17
101284.22
101282.25
101286.91
101300.76
101295.35
101298.18
101298.21
101291.72
101290.56
101298.23
101297.63
101299.79
101299.99
101305.2
101304.83
101314.42
101303.49
101308.15
101311.16
101312.74
101306.54
101297.37
101296.21
101283.64
101285.69
101293.7
101272.71
101278.87
101256.78
101264.01
101266.06
101271.99
101268.34
101260.26
101254.89
101258.58
101269.31
101264.73
101255.35
101246.75
101257.63
101264.04
101273.34
101272.74
101272.6
101293.63
101286.02
101286.06
101285.16
101284.83
101284.22
101284.91
101285.3
101291.94
101299.97
101302.47
101307.58
101291.15
101292.82
101294.24
101290.16
101291.38
101307.65
101296.51
101301.43
101293.44
101293.97
101303.64
101310.76
101307.6
101313.9
101306.8
101318.83
101309.19
101307.13
101308.76
101318.66
101316.95
101309.67
101306.22
101307.54
101305.71
101302.44
101302.42
101294.35
101302.49
101307.63
101308.58
101308.67
101298.92
101303.05
101303.86
101310.22
101308.44
101312.21
101313.7
101306.77
101299.7
101291.09
101291.77
101291.47
101283.75
101274.94
101268.63
101261.83
101254.97
101263.67
101257.06
101264.35
101257.19
101247.88
101239.39
101248.27
101259.26
101251.89
101238.12
101227.21
101211.36
101190.54
101215.67
101199.68
101166.46
101170.27
101187.86
101156.01
101185.62
101194.6
101211.15
101221.44
101235.25
101224
101244.31
101234.31
101211.95
101225.62
101211.3
101240.19
101258.59
101307.39
101285.28
101257.81
101286.64
101253.11
101255.94
101255.05
101252.82
101242.34
101283.08
101315.8
101246.33
101254.04
101255.07
101259.31
101288.43
101245.36
101287.82
101250
101256.27
101247.87
101212.13
101216.95
101229.1
101236.86
101206.98
101198.58
101183.68
101191.82
101225.54
101218.25
101226.29
101193.03
101183.49
101203.95
101234.23
101218.41
101214.18
101164.86
101170.54
101163.81
101160.26
101212.41
101209.88
101205.54
101205.14
101219.22
101248.69
101248.49
101243.27
101245.17
101301.38
101228.4
101294.93
101242.43
101246.27
101238.37
101233.47
101230.9
101300.11
101405.34
101284.88
101363.49
101246.08
101246.24
101272.12
101262.69
101333.91
101242.55
101327.58
101362.88
101300.56
101339.57
101254.78
101247.59
101247.64
101256.15
101304.51
101235
101295.47
101252.64
101247.59
101260.36
101273.96
101244
101355.49
101399.84
101293.09
101362.29
101251.39
101264.28
101275.11
101277.79
101286.34
101287.84
101275.46
101263.76
101256.22
101225.82
101224.52
101188.16
101187.94
101228.23
101265.47
101265.09
101324.02
101288.38
101288.87
101284.36
101286.5
101290.35
101289.27
101291.16
101290.47
101289.89
101301.61
101293.15
101290.39
101280.03
101280.56
101275.08
101282.34
101282.47
101286.23
101283.74
101281.2
101295.56
101295.35
101300.5
101298.5
101299.29
101297.05
101295.71
101288.85
101273.09
101273.66
101288.81
101287.57
101275.19
101276.57
101287.42
101294.58
101281.76
101283.06
101296.77
101300.54
101297.93
101299.84
101308.41
101299.06
101289.81
101289.81
101291.29
101289.63
101275.57
101278.41
101278.76
101282.03
101285.43
101295.58
101300.91
101296.54
101302.84
101308.32
101302.46
101306.28
101314.03
101306.3
101307.58
101299.14
101299.48
101296.65
101303.49
101314.2
101302.82
101316.7
101308.69
101319.57
101296.45
101298.09
101297.88
101303.88
101304.92
101303.84
101294.02
101301.89
101298.93
101313.48
101326.24
101295.87
101300.28
101299.03
101313.77
101319.82
101303.81
101319.81
101319.33
101311.32
101310.59
101318.66
101310.15
101304.75
101305.29
101304.06
101295.89
101293.8
101296.4
101292.38
101282.21
101288.48
101283.34
101287.8
101290.45
101290.18
101287.98
101299.09
101290.21
101298.74
101293.18
101300.88
101298.39
101290.57
101289.51
101287
101288.76
101288.14
101293.15
101286.34
101283.32
101280.47
101274.13
101274.59
101270.63
101271.57
101281.07
101275.47
101264.57
101263.25
101274.04
101280.08
101288.14
101302.53
101303.64
101290.3
101289.38
101288.49
101287.09
101286.71
101298.75
101283.55
101287.19
101298.47
101285.27
101284.37
101271.47
101272.2
101278.53
101278.96
101278.79
101273.96
101269.64
101270.01
101262.83
101262.26
101252.18
101251.87
101251.27
101252.13
101262.44
101263.21
101256.03
101263.37
101262.67
101274.55
101274.42
101272.07
101267.05
101267.4
101262.47
101258.08
101258.18
101262.23
101271.63
101257.25
101257.34
101271.11
101262.06
101261.64
101273.52
101270.46
101267.01
101262.91
101263.57
101275.91