# Forces        
# CofR          : (0.00000000e+00 0.00000000e+00 0.00000000e+00)
# Time          forces(pressure viscous porous)	moments(pressure viscous porous)
330             	((2.24633451e+02 -3.76612941e+00 -8.93004109e+00) (6.11090089e+01 1.78591252e-02 -3.45234388e-01) (0.00000000e+00 0.00000000e+00 0.00000000e+00)) ((1.86710065e-01 1.42124516e+01 -4.68723759e+00) (-7.54773080e-03 6.70787271e-01 -6.54285034e-03) (0.00000000e+00 0.00000000e+00 0.00000000e+00))
