# Forces        
# CofR          : (0.00000000e+00 0.00000000e+00 0.00000000e+00)
# Time          forces(pressure viscous porous)	moments(pressure viscous porous)
70              	((3.01657257e+02 -2.82699321e+00 -6.93379341e+00) (8.73824669e+01 5.89739349e-02 -2.99647364e-01) (0.00000000e+00 0.00000000e+00 0.00000000e+00)) ((8.51581167e-02 1.04726156e+01 -2.62274657e+00) (-8.54475953e-03 6.14642595e-01 2.96827975e-02) (0.00000000e+00 0.00000000e+00 0.00000000e+00))
