# Forces        
# CofR          : (0.00000000e+00 0.00000000e+00 0.00000000e+00)
# Time          forces(pressure viscous porous)	moments(pressure viscous porous)
190             	((2.40654803e+02 -3.36696058e+00 -7.04886642e+00) (6.66696484e+01 2.67348080e-02 -3.24241722e-01) (0.00000000e+00 0.00000000e+00 0.00000000e+00)) ((1.74388305e-01 1.17971851e+01 -4.03912362e+00) (-7.40236693e-03 6.51842765e-01 -1.60144061e-03) (0.00000000e+00 0.00000000e+00 0.00000000e+00))
