# Forces        
# CofR          : (0.00000000e+00 0.00000000e+00 0.00000000e+00)
# Time          forces(pressure viscous porous)	moments(pressure viscous porous)
230             	((2.33486864e+02 -3.37854154e+00 -8.09193651e+00) (6.39939445e+01 2.29899205e-02 -3.32145348e-01) (0.00000000e+00 0.00000000e+00 0.00000000e+00)) ((1.86910962e-01 1.31846039e+01 -4.08977160e+00) (-7.39981714e-03 6.58545227e-01 -4.05196613e-03) (0.00000000e+00 0.00000000e+00 0.00000000e+00))
