# Forces        
# CofR          : (0.00000000e+00 0.00000000e+00 0.00000000e+00)
# Time          forces(pressure viscous porous)	moments(pressure viscous porous)
450             	((2.21887808e+02 -3.89431104e+00 -8.91432097e+00) (6.05698171e+01 1.63014787e-02 -3.48041487e-01) (0.00000000e+00 0.00000000e+00 0.00000000e+00)) ((1.86844899e-01 1.41006560e+01 -4.87875012e+00) (-7.68687534e-03 6.73120369e-01 -7.68008688e-03) (0.00000000e+00 0.00000000e+00 0.00000000e+00))
