# Forces        
# CofR          : (0.00000000e+00 0.00000000e+00 0.00000000e+00)
# Time          forces(pressure viscous porous)	moments(pressure viscous porous)
110             	((2.72962790e+02 -3.06261328e+00 -4.98848522e+00) (7.77665487e+01 4.13666849e-02 -3.18022835e-01) (0.00000000e+00 0.00000000e+00 0.00000000e+00)) ((7.96461598e-02 8.60215641e+00 -3.37805723e+00) (-7.55916116e-03 6.47280206e-01 1.03391829e-02) (0.00000000e+00 0.00000000e+00 0.00000000e+00))
