# Forces        
# CofR          : (0.00000000e+00 0.00000000e+00 0.00000000e+00)
# Time          forces(pressure viscous porous)	moments(pressure viscous porous)
320             	((2.25185569e+02 -3.73745855e+00 -8.90483468e+00) (6.12421579e+01 1.83425139e-02 -3.44376218e-01) (0.00000000e+00 0.00000000e+00 0.00000000e+00)) ((1.88182468e-01 1.41884259e+01 -4.64365062e+00) (-7.52364351e-03 6.69909949e-01 -6.16504209e-03) (0.00000000e+00 0.00000000e+00 0.00000000e+00))
