# Forces        
# CofR          : (0.00000000e+00 0.00000000e+00 0.00000000e+00)
# Time          forces(pressure viscous porous)	moments(pressure viscous porous)
250             	((2.31038100e+02 -3.45713245e+00 -8.40297258e+00) (6.30818434e+01 2.19826414e-02 -3.35720439e-01) (0.00000000e+00 0.00000000e+00 0.00000000e+00)) ((1.90926690e-01 1.35829588e+01 -4.21521974e+00) (-7.42022236e-03 6.61798091e-01 -4.30408437e-03) (0.00000000e+00 0.00000000e+00 0.00000000e+00))
