# Forces        
# CofR          : (0.00000000e+00 0.00000000e+00 0.00000000e+00)
# Time          forces(pressure viscous porous)	moments(pressure viscous porous)
350             	((2.23691372e+02 -3.79138307e+00 -8.95767455e+00) (6.09061666e+01 1.71842960e-02 -3.46560397e-01) (0.00000000e+00 0.00000000e+00 0.00000000e+00)) ((1.89435035e-01 1.42305490e+01 -4.72754673e+00) (-7.58708617e-03 6.72102244e-01 -7.02539383e-03) (0.00000000e+00 0.00000000e+00 0.00000000e+00))
