# Forces        
# CofR          : (0.00000000e+00 0.00000000e+00 0.00000000e+00)
# Time          forces(pressure viscous porous)	moments(pressure viscous porous)
200             	((2.38485502e+02 -3.34431906e+00 -7.34105034e+00) (6.58713752e+01 2.56804199e-02 -3.26310719e-01) (0.00000000e+00 0.00000000e+00 0.00000000e+00)) ((1.77606455e-01 1.21885835e+01 -4.01729538e+00) (-7.39529078e-03 6.53604858e-01 -2.30274034e-03) (0.00000000e+00 0.00000000e+00 0.00000000e+00))
