# Forces        
# CofR          : (0.00000000e+00 0.00000000e+00 0.00000000e+00)
# Time          forces(pressure viscous porous)	moments(pressure viscous porous)
170             	((2.46011857e+02 -3.48038710e+00 -6.46946305e+00) (6.85922020e+01 2.95337154e-02 -3.20122457e-01) (0.00000000e+00 0.00000000e+00 0.00000000e+00)) ((1.68689146e-01 1.10155734e+01 -4.17766479e+00) (-7.41270722e-03 6.48348034e-01 5.25841759e-04) (0.00000000e+00 0.00000000e+00 0.00000000e+00))
