# Forces        
# CofR          : (0.00000000e+00 0.00000000e+00 0.00000000e+00)
# Time          forces(pressure viscous porous)	moments(pressure viscous porous)
50              	((3.18885323e+02 -1.52222498e+00 -7.25281436e+00) (9.32783870e+01 6.94190758e-02 -2.59804394e-01) (0.00000000e+00 0.00000000e+00 0.00000000e+00)) ((5.80828866e-02 1.03765574e+01 -7.04588847e-01) (-8.92257804e-03 5.51479534e-01 4.08937447e-02) (0.00000000e+00 0.00000000e+00 0.00000000e+00))
