# Forces        
# CofR          : (0.00000000e+00 0.00000000e+00 0.00000000e+00)
# Time          forces(pressure viscous porous)	moments(pressure viscous porous)
390             	((2.22579929e+02 -3.84581255e+00 -8.95623990e+00) (6.06885518e+01 1.65936087e-02 -3.47940660e-01) (0.00000000e+00 0.00000000e+00 0.00000000e+00)) ((1.90904780e-01 1.41954222e+01 -4.80796583e+00) (-7.64258725e-03 6.73445432e-01 -7.39899492e-03) (0.00000000e+00 0.00000000e+00 0.00000000e+00))
