# Forces        
# CofR          : (0.00000000e+00 0.00000000e+00 0.00000000e+00)
# Time          forces(pressure viscous porous)	moments(pressure viscous porous)
460             	((2.21823561e+02 -3.83580924e+00 -8.90595772e+00) (6.05600564e+01 1.64110040e-02 -3.47929950e-01) (0.00000000e+00 0.00000000e+00 0.00000000e+00)) ((1.93184451e-01 1.40841758e+01 -4.79590377e+00) (-7.66636023e-03 6.72893457e-01 -7.51803696e-03) (0.00000000e+00 0.00000000e+00 0.00000000e+00))
