# Forces        
# CofR          : (0.00000000e+00 0.00000000e+00 0.00000000e+00)
# Time          forces(pressure viscous porous)	moments(pressure viscous porous)
410             	((2.22273820e+02 -3.88969680e+00 -8.94040060e+00) (6.06336908e+01 1.63972059e-02 -3.48179251e-01) (0.00000000e+00 0.00000000e+00 0.00000000e+00)) ((1.86986080e-01 1.41598194e+01 -4.87136886e+00) (-7.67207886e-03 6.73611354e-01 -7.59738804e-03) (0.00000000e+00 0.00000000e+00 0.00000000e+00))
