# Forces        
# CofR          : (0.00000000e+00 0.00000000e+00 0.00000000e+00)
# Time          forces(pressure viscous porous)	moments(pressure viscous porous)
440             	((2.21973215e+02 -3.91033097e+00 -8.91891548e+00) (6.05829110e+01 1.64066195e-02 -3.48117452e-01) (0.00000000e+00 0.00000000e+00 0.00000000e+00)) ((1.84528730e-01 1.41123015e+01 -4.90145785e+00) (-7.66836935e-03 6.73306548e-01 -7.52836737e-03) (0.00000000e+00 0.00000000e+00 0.00000000e+00))
