# Forces        
# CofR          : (0.00000000e+00 0.00000000e+00 0.00000000e+00)
# Time          forces(pressure viscous porous)	moments(pressure viscous porous)
0               	((-1.33226763e-12 9.19264664e-13 3.08335579e-11) (7.00164533e+00 -1.38814766e-03 8.36263328e-04) (0.00000000e+00 0.00000000e+00 0.00000000e+00)) ((-1.39746548e-01 -1.22254316e-01 4.55946538e-02) (1.20366512e-04 -7.65533381e-03 1.43709698e-03) (0.00000000e+00 0.00000000e+00 0.00000000e+00))
