# Forces        
# CofR          : (0.00000000e+00 0.00000000e+00 0.00000000e+00)
# Time          forces(pressure viscous porous)	moments(pressure viscous porous)
20              	((3.59266538e+02 1.38360447e+00 5.16116079e-01) (1.04618065e+02 7.32879643e-02 -1.50558698e-01) (0.00000000e+00 0.00000000e+00 0.00000000e+00)) ((2.58221283e-02 -2.09485905e+00 3.00430939e+00) (-9.71221399e-03 3.91381166e-01 4.08008839e-02) (0.00000000e+00 0.00000000e+00 0.00000000e+00))
