# Forces        
# CofR          : (0.00000000e+00 0.00000000e+00 0.00000000e+00)
# Time          forces(pressure viscous porous)	moments(pressure viscous porous)
130             	((2.61809166e+02 -3.10344211e+00 -5.26265801e+00) (7.40569252e+01 3.56480956e-02 -3.17353878e-01) (0.00000000e+00 0.00000000e+00 0.00000000e+00)) ((1.12888327e-01 9.22134100e+00 -3.56163651e+00) (-7.45092361e-03 6.47063849e-01 4.47806914e-03) (0.00000000e+00 0.00000000e+00 0.00000000e+00))
