# Forces        
# CofR          : (0.00000000e+00 0.00000000e+00 0.00000000e+00)
# Time          forces(pressure viscous porous)	moments(pressure viscous porous)
180             	((2.43158872e+02 -3.40234334e+00 -6.78051416e+00) (6.75729337e+01 2.80093091e-02 -3.22063495e-01) (0.00000000e+00 0.00000000e+00 0.00000000e+00)) ((1.68776977e-01 1.14364887e+01 -4.07844822e+00) (-7.39917701e-03 6.49957291e-01 -6.69929505e-04) (0.00000000e+00 0.00000000e+00 0.00000000e+00))
