# Forces        
# CofR          : (0.00000000e+00 0.00000000e+00 0.00000000e+00)
# Time          forces(pressure viscous porous)	moments(pressure viscous porous)
380             	((2.22782858e+02 -3.84584641e+00 -8.96443251e+00) (6.07266143e+01 1.66203391e-02 -3.47739261e-01) (0.00000000e+00 0.00000000e+00 0.00000000e+00)) ((1.89710923e-01 1.42140284e+01 -4.80792185e+00) (-7.64426337e-03 6.73271382e-01 -7.43274599e-03) (0.00000000e+00 0.00000000e+00 0.00000000e+00))
