# Forces        
# CofR          : (0.00000000e+00 0.00000000e+00 0.00000000e+00)
# Time          forces(pressure viscous porous)	moments(pressure viscous porous)
500             	((2.21612454e+02 -3.81197922e+00 -8.89063769e+00) (6.05335175e+01 1.64945800e-02 -3.47571102e-01) (0.00000000e+00 0.00000000e+00 0.00000000e+00)) ((1.94038599e-01 1.40449027e+01 -4.76316919e+00) (-7.64674986e-03 6.72144088e-01 -7.39682452e-03) (0.00000000e+00 0.00000000e+00 0.00000000e+00))
