# Forces        
# CofR          : (0.00000000e+00 0.00000000e+00 0.00000000e+00)
# Time          forces(pressure viscous porous)	moments(pressure viscous porous)
360             	((2.23319636e+02 -3.82232055e+00 -8.96419400e+00) (6.08320573e+01 1.69690551e-02 -3.47037158e-01) (0.00000000e+00 0.00000000e+00 0.00000000e+00)) ((1.88219216e-01 1.42298721e+01 -4.77300822e+00) (-7.60536749e-03 6.72560092e-01 -7.16046464e-03) (0.00000000e+00 0.00000000e+00 0.00000000e+00))
