# Forces        
# CofR          : (0.00000000e+00 0.00000000e+00 0.00000000e+00)
# Time          forces(pressure viscous porous)	moments(pressure viscous porous)
270             	((2.29021439e+02 -3.55381091e+00 -8.60763562e+00) (6.23679728e+01 2.08589805e-02 -3.38913020e-01) (0.00000000e+00 0.00000000e+00 0.00000000e+00)) ((1.91247449e-01 1.38382789e+01 -4.36298192e+00) (-7.45423502e-03 6.64832152e-01 -4.76966738e-03) (0.00000000e+00 0.00000000e+00 0.00000000e+00))
