# Forces        
# CofR          : (0.00000000e+00 0.00000000e+00 0.00000000e+00)
# Time          forces(pressure viscous porous)	moments(pressure viscous porous)
470             	((2.21769059e+02 -3.86935685e+00 -8.90223323e+00) (6.05538026e+01 1.64974842e-02 -3.47869250e-01) (0.00000000e+00 0.00000000e+00 0.00000000e+00)) ((1.88298229e-01 1.40739250e+01 -4.84388358e+00) (-7.64851181e-03 6.72760678e-01 -7.38558315e-03) (0.00000000e+00 0.00000000e+00 0.00000000e+00))
