# Forces        
# CofR          : (0.00000000e+00 0.00000000e+00 0.00000000e+00)
# Time          forces(pressure viscous porous)	moments(pressure viscous porous)
310             	((2.25812670e+02 -3.71189459e+00 -8.87274687e+00) (6.14019412e+01 1.87900604e-02 -3.43494033e-01) (0.00000000e+00 0.00000000e+00 0.00000000e+00)) ((1.89570956e-01 1.41555822e+01 -4.60373296e+00) (-7.51439755e-03 6.69072688e-01 -5.87783531e-03) (0.00000000e+00 0.00000000e+00 0.00000000e+00))
