# Forces        
# CofR          : (0.00000000e+00 0.00000000e+00 0.00000000e+00)
# Time          forces(pressure viscous porous)	moments(pressure viscous porous)
160             	((2.49226210e+02 -3.54373831e+00 -6.09231155e+00) (6.97391587e+01 3.11405773e-02 -3.18524386e-01) (0.00000000e+00 0.00000000e+00 0.00000000e+00)) ((1.71242222e-01 1.04917097e+01 -4.25515225e+00) (-7.46258040e-03 6.47110307e-01 1.74066569e-03) (0.00000000e+00 0.00000000e+00 0.00000000e+00))
