# Forces        
# CofR          : (0.00000000e+00 0.00000000e+00 0.00000000e+00)
# Time          forces(pressure viscous porous)	moments(pressure viscous porous)
40              	((3.28918375e+02 -5.56410748e-02 -6.25589796e+00) (9.65540872e+01 7.32509847e-02 -2.25988817e-01) (0.00000000e+00 0.00000000e+00 0.00000000e+00)) ((5.22896894e-02 8.43980101e+00 1.35557047e+00) (-9.01386106e-03 5.00123565e-01 4.47573962e-02) (0.00000000e+00 0.00000000e+00 0.00000000e+00))
