# Forces        
# CofR          : (0.00000000e+00 0.00000000e+00 0.00000000e+00)
# Time          forces(pressure viscous porous)	moments(pressure viscous porous)
210             	((2.36592925e+02 -3.35025339e+00 -7.61417737e+00) (6.51665265e+01 2.47629321e-02 -3.28399744e-01) (0.00000000e+00 0.00000000e+00 0.00000000e+00)) ((1.79936597e-01 1.25530552e+01 -4.03449157e+00) (-7.38490893e-03 6.55422367e-01 -2.85319737e-03) (0.00000000e+00 0.00000000e+00 0.00000000e+00))
