# Forces        
# CofR          : (0.00000000e+00 0.00000000e+00 0.00000000e+00)
# Time          forces(pressure viscous porous)	moments(pressure viscous porous)
280             	((2.28118225e+02 -3.60236884e+00 -8.68848196e+00) (6.20721098e+01 2.03080403e-02 -3.40203929e-01) (0.00000000e+00 0.00000000e+00 0.00000000e+00)) ((1.90627095e-01 1.39369247e+01 -4.43615474e+00) (-7.46979314e-03 6.66005249e-01 -5.02567933e-03) (0.00000000e+00 0.00000000e+00 0.00000000e+00))
