# Forces        
# CofR          : (0.00000000e+00 0.00000000e+00 0.00000000e+00)
# Time          forces(pressure viscous porous)	moments(pressure viscous porous)
240             	((2.32188644e+02 -3.40788963e+00 -8.26546237e+00) (6.35074744e+01 2.24498390e-02 -3.33956560e-01) (0.00000000e+00 0.00000000e+00 0.00000000e+00)) ((1.89595956e-01 1.34079018e+01 -4.13891454e+00) (-7.40615956e-03 6.60154682e-01 -4.21952291e-03) (0.00000000e+00 0.00000000e+00 0.00000000e+00))
