# Forces        
# CofR          : (0.00000000e+00 0.00000000e+00 0.00000000e+00)
# Time          forces(pressure viscous porous)	moments(pressure viscous porous)
100             	((2.79382079e+02 -3.05308843e+00 -5.14904641e+00) (7.98925667e+01 4.47682000e-02 -3.17069385e-01) (0.00000000e+00 0.00000000e+00 0.00000000e+00)) ((7.11440864e-02 8.63627970e+00 -3.34750264e+00) (-7.73346864e-03 6.44982933e-01 1.39588863e-02) (0.00000000e+00 0.00000000e+00 0.00000000e+00))
