# Forces        
# CofR          : (0.00000000e+00 0.00000000e+00 0.00000000e+00)
# Time          forces(pressure viscous porous)	moments(pressure viscous porous)
420             	((2.22159875e+02 -3.85098725e+00 -8.92994608e+00) (6.06138566e+01 1.64082300e-02 -3.48161453e-01) (0.00000000e+00 0.00000000e+00 0.00000000e+00)) ((1.91384846e-01 1.41390816e+01 -4.81681944e+00) (-7.66958919e-03 6.73509277e-01 -7.56126376e-03) (0.00000000e+00 0.00000000e+00 0.00000000e+00))
