# Forces        
# CofR          : (0.00000000e+00 0.00000000e+00 0.00000000e+00)
# Time          forces(pressure viscous porous)	moments(pressure viscous porous)
120             	((2.67099070e+02 -3.06151933e+00 -5.07865426e+00) (7.58235447e+01 3.82354671e-02 -3.17791057e-01) (0.00000000e+00 0.00000000e+00 0.00000000e+00)) ((9.06824390e-02 8.86425374e+00 -3.44602395e+00) (-7.45551096e-03 6.47494277e-01 6.99680163e-03) (0.00000000e+00 0.00000000e+00 0.00000000e+00))
