# Forces        
# CofR          : (0.00000000e+00 0.00000000e+00 0.00000000e+00)
# Time          forces(pressure viscous porous)	moments(pressure viscous porous)
30              	((3.41302158e+02 1.34793486e+00 -3.68740448e+00) (1.00243651e+02 7.53487785e-02 -1.85968318e-01) (0.00000000e+00 0.00000000e+00 0.00000000e+00)) ((3.23170754e-02 4.24997923e+00 3.24331352e+00) (-9.58208894e-03 4.41833856e-01 4.63250947e-02) (0.00000000e+00 0.00000000e+00 0.00000000e+00))
