# Forces        
# CofR          : (0.00000000e+00 0.00000000e+00 0.00000000e+00)
# Time          forces(pressure viscous porous)	moments(pressure viscous porous)
90              	((2.86334103e+02 -3.06975201e+00 -5.58167988e+00) (8.22043350e+01 4.89166019e-02 -3.13924951e-01) (0.00000000e+00 0.00000000e+00 0.00000000e+00)) ((6.70135923e-02 9.00130255e+00 -3.32946368e+00) (-7.97886327e-03 6.38922946e-01 1.83974023e-02) (0.00000000e+00 0.00000000e+00 0.00000000e+00))
