# Forces        
# CofR          : (0.00000000e+00 0.00000000e+00 0.00000000e+00)
# Time          forces(pressure viscous porous)	moments(pressure viscous porous)
220             	((2.34942958e+02 -3.36912401e+00 -7.87415058e+00) (6.45440434e+01 2.37524613e-02 -3.30285163e-01) (0.00000000e+00 0.00000000e+00 0.00000000e+00)) ((1.83317341e-01 1.28984386e+01 -4.06884137e+00) (-7.38755100e-03 6.56959474e-01 -3.60688476e-03) (0.00000000e+00 0.00000000e+00 0.00000000e+00))
