# Forces        
# CofR          : (0.00000000e+00 0.00000000e+00 0.00000000e+00)
# Time          forces(pressure viscous porous)	moments(pressure viscous porous)
260             	((2.29992918e+02 -3.50732400e+00 -8.51116080e+00) (6.27037997e+01 2.14304713e-02 -3.37430221e-01) (0.00000000e+00 0.00000000e+00 0.00000000e+00)) ((1.91540719e-01 1.37187409e+01 -4.29222457e+00) (-7.43971140e-03 6.63444760e-01 -4.51757135e-03) (0.00000000e+00 0.00000000e+00 0.00000000e+00))
