# Forces        
# CofR          : (0.00000000e+00 0.00000000e+00 0.00000000e+00)
# Time          forces(pressure viscous porous)	moments(pressure viscous porous)
60              	((3.09923445e+02 -2.39949656e+00 -7.34198660e+00) (9.02397655e+01 6.43215652e-02 -2.84189576e-01) (0.00000000e+00 0.00000000e+00 0.00000000e+00)) ((7.05192290e-02 1.08572048e+01 -1.90354865e+00) (-8.80544533e-03 5.89835979e-01 3.53451708e-02) (0.00000000e+00 0.00000000e+00 0.00000000e+00))
