# Forces        
# CofR          : (0.00000000e+00 0.00000000e+00 0.00000000e+00)
# Time          forces(pressure viscous porous)	moments(pressure viscous porous)
150             	((2.52891183e+02 -3.47944713e+00 -5.77710786e+00) (7.10246875e+01 3.25450634e-02 -3.17513296e-01) (0.00000000e+00 0.00000000e+00 0.00000000e+00)) ((1.60663574e-01 1.00371732e+01 -4.14290648e+00) (-7.48102468e-03 6.46519832e-01 2.56021084e-03) (0.00000000e+00 0.00000000e+00 0.00000000e+00))
