# Forces        
# CofR          : (0.00000000e+00 0.00000000e+00 0.00000000e+00)
# Time          forces(pressure viscous porous)	moments(pressure viscous porous)
490             	((2.21665490e+02 -3.86630802e+00 -8.89850531e+00) (6.05415235e+01 1.62890901e-02 -3.47742351e-01) (0.00000000e+00 0.00000000e+00 0.00000000e+00)) ((1.88833279e-01 1.40598722e+01 -4.83964241e+00) (-7.68446314e-03 6.72461425e-01 -7.69495644e-03) (0.00000000e+00 0.00000000e+00 0.00000000e+00))
