# Forces        
# CofR          : (0.00000000e+00 0.00000000e+00 0.00000000e+00)
# Time          forces(pressure viscous porous)	moments(pressure viscous porous)
480             	((2.21716063e+02 -3.93293629e+00 -8.90325982e+00) (6.05461783e+01 1.63324871e-02 -3.47845243e-01) (0.00000000e+00 0.00000000e+00 0.00000000e+00)) ((1.81267085e-01 1.40707924e+01 -4.93412038e+00) (-7.67731393e-03 6.72668067e-01 -7.63077983e-03) (0.00000000e+00 0.00000000e+00 0.00000000e+00))
