# Forces        
# CofR          : (0.00000000e+00 0.00000000e+00 0.00000000e+00)
# Time          forces(pressure viscous porous)	moments(pressure viscous porous)
430             	((2.22046656e+02 -3.85641001e+00 -8.92104166e+00) (6.05949987e+01 1.64920939e-02 -3.48102811e-01) (0.00000000e+00 0.00000000e+00 0.00000000e+00)) ((1.90788005e-01 1.41208066e+01 -4.82476680e+00) (-7.65359898e-03 6.73335706e-01 -7.42236742e-03) (0.00000000e+00 0.00000000e+00 0.00000000e+00))
