# Forces        
# CofR          : (0.00000000e+00 0.00000000e+00 0.00000000e+00)
# Time          forces(pressure viscous porous)	moments(pressure viscous porous)
340             	((2.24122358e+02 -3.78266496e+00 -8.94643647e+00) (6.09969514e+01 1.74622737e-02 -3.45983513e-01) (0.00000000e+00 0.00000000e+00 0.00000000e+00)) ((1.87946374e-01 1.42246773e+01 -4.71327171e+00) (-7.57095478e-03 6.71538931e-01 -6.84372745e-03) (0.00000000e+00 0.00000000e+00 0.00000000e+00))
