# Forces        
# CofR          : (0.00000000e+00 0.00000000e+00 0.00000000e+00)
# Time          forces(pressure viscous porous)	moments(pressure viscous porous)
300             	((2.26512705e+02 -3.69041311e+00 -8.82666051e+00) (6.15916747e+01 1.92388256e-02 -3.42521880e-01) (0.00000000e+00 0.00000000e+00 0.00000000e+00)) ((1.89152849e-01 1.41036421e+01 -4.56952619e+00) (-7.51554928e-03 6.68171048e-01 -5.62477627e-03) (0.00000000e+00 0.00000000e+00 0.00000000e+00))
