# Forces        
# CofR          : (0.00000000e+00 0.00000000e+00 0.00000000e+00)
# Time          forces(pressure viscous porous)	moments(pressure viscous porous)
80              	((2.93784632e+02 -2.96551759e+00 -6.26342291e+00) (8.47026240e+01 5.37857553e-02 -3.08567923e-01) (0.00000000e+00 0.00000000e+00 0.00000000e+00)) ((7.81480731e-02 9.64529408e+00 -3.14856515e+00) (-8.26431498e-03 6.29414263e-01 2.38363340e-02) (0.00000000e+00 0.00000000e+00 0.00000000e+00))
