# Forces        
# CofR          : (0.00000000e+00 0.00000000e+00 0.00000000e+00)
# Time          forces(pressure viscous porous)	moments(pressure viscous porous)
370             	((2.23019255e+02 -3.85174845e+00 -8.96717754e+00) (6.07731236e+01 1.67543281e-02 -3.47439349e-01) (0.00000000e+00 0.00000000e+00 0.00000000e+00)) ((1.87216084e-01 1.42255921e+01 -4.81564456e+00) (-7.63005478e-03 6.72968593e-01 -7.34233703e-03) (0.00000000e+00 0.00000000e+00 0.00000000e+00))
