# Forces        
# CofR          : (0.00000000e+00 0.00000000e+00 0.00000000e+00)
# Time          forces(pressure viscous porous)	moments(pressure viscous porous)
10              	((3.94318840e+02 -6.59758449e+01 2.99504749e+01) (1.05708707e+02 9.56968548e-02 -9.64695171e-02) (0.00000000e+00 0.00000000e+00 0.00000000e+00)) ((9.78922708e+00 -4.36841498e+01 -8.98128446e+01) (-3.34900907e-03 3.19521818e-01 7.29918484e-02) (0.00000000e+00 0.00000000e+00 0.00000000e+00))
