# Forces        
# CofR          : (0.00000000e+00 0.00000000e+00 0.00000000e+00)
# Time          forces(pressure viscous porous)	moments(pressure viscous porous)
290             	((2.27280481e+02 -3.65419413e+00 -8.76225461e+00) (6.18142098e+01 1.97447829e-02 -3.41417685e-01) (0.00000000e+00 0.00000000e+00 0.00000000e+00)) ((1.89711340e-01 1.40263919e+01 -4.51378357e+00) (-7.49922014e-03 6.67141184e-01 -5.33508500e-03) (0.00000000e+00 0.00000000e+00 0.00000000e+00))
