# Forces        
# CofR          : (0.00000000e+00 0.00000000e+00 0.00000000e+00)
# Time          forces(pressure viscous porous)	moments(pressure viscous porous)
140             	((2.57073378e+02 -3.25129678e+00 -5.52580609e+00) (7.24601596e+01 3.39330896e-02 -3.17094881e-01) (0.00000000e+00 0.00000000e+00 0.00000000e+00)) ((1.35739149e-01 9.66419760e+00 -3.80555913e+00) (-7.47078427e-03 6.46489223e-01 3.28639137e-03) (0.00000000e+00 0.00000000e+00 0.00000000e+00))
