# Forces        
# CofR          : (0.00000000e+00 0.00000000e+00 0.00000000e+00)
# Time          forces(pressure viscous porous)	moments(pressure viscous porous)
400             	((2.22413081e+02 -3.87808620e+00 -8.94983216e+00) (6.06583124e+01 1.65237025e-02 -3.48096315e-01) (0.00000000e+00 0.00000000e+00 0.00000000e+00)) ((1.87501363e-01 1.41792697e+01 -4.85479129e+00) (-7.65132711e-03 6.73574993e-01 -7.45240068e-03) (0.00000000e+00 0.00000000e+00 0.00000000e+00))
