/*--------------------------------*- C++ -*----------------------------------*\
  =========                 |
  \\      /  F ield         | OpenFOAM: The Open Source CFD Toolbox
   \\    /   O peration     | Website:  https://openfoam.org
    \\  /    A nd           | Version:  7
     \\/     M anipulation  |
\*---------------------------------------------------------------------------*/
FoamFile
{
    version     2.0;
    format      ascii;
    class       volScalarField;
    location    "490";
    object      p;
}
// * * * * * * * * * * * * * * * * * * * * * * * * * * * * * * * * * * * * * //

dimensions      [1 -1 -2 0 0 0 0];

internalField   nonuniform List<scalar> 
24789
(
101300.75
101300.77
101300.79
101300.8
101300.64
101299.46
101299.61
101299.59
101299.57
101299.55
101298.29
101298.31
101298.33
101298.35
101298.21
101296.88
101297
101296.98
101296.96
101296.94
101295.49
101295.51
101295.53
101295.55
101295.44
101293.89
101293.99
101293.97
101293.94
101293.92
101292.21
101292.24
101292.27
101292.29
101292.21
101290.38
101290.44
101290.41
101290.39
101290.36
101288.33
101288.36
101288.39
101288.42
101288.38
101286.18
101286.19
101286.16
101286.13
101286.1
101283.64
101283.68
101283.71
101283.74
101283.76
101281.08
101281.04
101281
101280.96
101280.93
101277.91
101277.95
101277.99
101278.03
101278.11
101274.8
101274.68
101274.63
101274.59
101274.54
101270.78
101270.82
101270.87
101270.92
101271.1
101266.94
101266.7
101266.64
101266.59
101266.54
101261.75
101261.81
101261.87
101261.94
101262.25
101256.93
101256.53
101256.45
101256.38
101256.32
101250.13
101250.2
101250.27
101250.37
101250.87
101243.9
101243.29
101243.18
101243.09
101243.01
101234.78
101234.87
101234.98
101235.11
101235.86
101226.51
101225.6
101225.44
101225.31
101225.2
101213.96
101214.09
101214.25
101214.45
101215.56
101202.63
101201.29
101201.04
101200.84
101200.69
101184.77
101184.96
101185.22
101185.52
101187.14
101168.45
101166.48
101166.1
101165.78
101165.54
101142.66
101142.96
101143.37
101143.85
101146.18
101118.19
101115.77
101115.17
101114.64
101114.25
101075.18
101075.67
101076.35
101077.09
101079.15
101037.91
101034.73
101033.67
101032.72
101032.16
101013.8
101014.45
101016.02
101018.02
101025.79
100920.65
100914.8
100912.99
100912.24
100911.14
100313.33
100336.57
100352.66
100371.68
100546.55
100862.64
100810.57
100800.45
100790.86
100777.14
100956.45
100970.67
100976.64
100984.21
101013.96
101178.52
101136.55
101126.74
101116.48
101099.48
101463.97
101490.99
101512.86
101531.58
101539.16
101118.44
100926.47
100905.57
100889.21
100862.18
101005.28
101010.59
101010.99
101011.2
101023.24
100781.91
100558.14
100530.78
100504.62
100470.5
100488.13
100496.57
100500.49
100508.41
100610.21
100927.12
100920.31
100919.13
100918.49
100918.03
101012.53
101013.26
101014.63
101016.3
101023.82
101037.65
101035.71
101034.82
101034.04
101033.5
101076.36
101076.78
101077.35
101077.99
101079.56
101119.09
101116.83
101116.3
101115.86
101115.54
101143.81
101144.06
101144.39
101144.81
101147.12
101169.16
101167.12
101166.79
101166.53
101166.34
101185.32
101185.48
101185.69
101185.95
101187.67
101203.02
101201.59
101201.38
101201.21
101201.08
101214.26
101214.37
101214.51
101214.68
101215.86
101226.75
101225.79
101225.65
101225.54
101225.45
101234.99
101235.06
101235.16
101235.28
101236.05
101244.05
101243.43
101243.33
101243.25
101243.18
101250.28
101250.34
101250.41
101250.5
101250.99
101257.04
101256.66
101256.58
101256.53
101256.47
101261.89
101261.94
101262
101262.06
101262.34
101267.03
101266.82
101266.76
101266.72
101266.67
101270.9
101270.94
101270.98
101271.03
101271.17
101274.87
101274.78
101274.74
101274.7
101274.66
101278.02
101278.06
101278.09
101278.13
101278.17
101281.13
101281.13
101281.1
101281.07
101281.04
101283.75
101283.78
101283.81
101283.84
101283.8
101286.22
101286.29
101286.26
101286.23
101286.2
101288.43
101288.46
101288.48
101288.51
101288.42
101290.42
101290.53
101290.51
101290.49
101290.46
101292.31
101292.34
101292.36
101292.38
101292.25
101293.93
101294.08
101294.06
101294.04
101294.01
101295.58
101295.6
101295.62
101295.64
101295.48
101296.91
101297.09
101297.07
101297.05
101297.03
101298.38
101298.4
101298.42
101298.43
101298.25
101299.5
101299.7
101299.68
101299.67
101299.65
101300.9
101300.92
101300.93
101300.94
101300.69
101299.55
101299.76
101299.75
101299.74
101299.71
101298.44
101298.46
101298.48
101298.49
101298.3
101296.95
101297.14
101297.12
101297.11
101297.08
101295.63
101295.65
101295.67
101295.69
101295.51
101293.96
101294.12
101294.1
101294.08
101294.06
101292.35
101292.38
101292.4
101292.42
101292.27
101290.44
101290.56
101290.54
101290.52
101290.49
101288.46
101288.49
101288.51
101288.54
101288.43
101286.23
101286.31
101286.29
101286.26
101286.23
101283.78
101283.81
101283.84
101283.86
101283.81
101281.14
101281.15
101281.12
101281.09
101281.06
101278.05
101278.08
101278.11
101278.15
101278.17
101274.86
101274.8
101274.76
101274.72
101274.68
101270.92
101270.96
101271
101271.05
101271.16
101267.01
101266.83
101266.78
101266.74
101266.69
101261.91
101261.96
101262.01
101262.07
101262.32
101257.01
101256.66
101256.6
101256.54
101256.49
101250.3
101250.36
101250.42
101250.5
101250.95
101244.01
101243.43
101243.34
101243.27
101243.2
101235.01
101235.09
101235.17
101235.28
101236.01
101226.71
101225.8
101225.67
101225.57
101225.48
101214.31
101214.41
101214.53
101214.69
101215.81
101202.96
101201.59
101201.4
101201.25
101201.13
101185.39
101185.53
101185.72
101185.96
101187.62
101169.1
101167.14
101166.83
101166.6
101166.42
101143.83
101144.06
101144.37
101144.76
101147.01
101119.27
101117
101116.51
101116.1
101115.8
101077.28
101077.66
101078.2
101078.8
101080.35
101035.21
101034.02
101033.24
101032.52
101032.06
101006.85
101007.47
101008.75
101010.32
101017.57
100949.7
100943.71
100942.19
100941.25
100940.6
100559.95
100566.54
100567.78
100572.36
100629.69
100595.16
100189.79
100146.19
100106.67
100056.43
101657.14
101639.64
101623.82
101603.41
101378.22
101070.97
100928.56
100910.69
100898.17
100873.26
101415.09
101447.23
101470.27
101490.58
101487.3
101204.43
101252.45
101256.98
101260.9
101258.15
101532.76
101520.75
101508.18
101491.31
101341.9
100582.65
100249.16
100205.21
100162.96
100112.04
100495.96
100505.88
100508.91
100515.51
100591.02
100931.96
100925.51
100923.92
100923.26
100922.27
101001.01
101001.58
101002.8
101004.35
101010.56
101031.71
101029.97
101029.15
101028.38
101027.87
101074.69
101075.14
101075.73
101076.37
101078.1
101117.33
101115.26
101114.73
101114.28
101113.93
101142.42
101142.69
101143.04
101143.45
101145.4
101167.97
101166.32
101166
101165.72
101165.51
101184.74
101184.92
101185.13
101185.4
101186.75
101202.28
101201.16
101200.95
101200.77
101200.63
101213.9
101214.02
101214.17
101214.34
101215.26
101226.26
101225.52
101225.37
101225.26
101225.15
101234.74
101234.83
101234.93
101235.05
101235.65
101243.71
101243.24
101243.14
101243.05
101242.97
101250.1
101250.17
101250.24
101250.33
101250.7
101256.8
101256.51
101256.43
101256.37
101256.31
101261.75
101261.81
101261.86
101261.93
101262.15
101266.86
101266.7
101266.64
101266.59
101266.54
101270.78
101270.83
101270.87
101270.92
101271.03
101274.74
101274.68
101274.63
101274.59
101274.55
101277.91
101277.96
101277.99
101278.03
101278.06
101281.04
101281.04
101281.01
101280.97
101280.93
101283.65
101283.69
101283.72
101283.75
101283.73
101286.16
101286.21
101286.18
101286.15
101286.11
101288.34
101288.38
101288.4
101288.43
101288.36
101290.37
101290.46
101290.43
101290.41
101290.38
101292.24
101292.27
101292.29
101292.31
101292.21
101293.9
101294.02
101293.99
101293.97
101293.94
101295.52
101295.54
101295.57
101295.59
101295.46
101296.9
101297.04
101297.02
101297
101296.97
101298.33
101298.36
101298.38
101298.39
101298.25
101299.51
101299.67
101299.66
101299.64
101299.61
101299.62
101299.65
101299.66
101299.68
101299.52
101298.27
101298.41
101298.4
101298.38
101298.36
101297
101297.03
101297.05
101297.07
101296.93
101295.49
101295.62
101295.6
101295.58
101295.55
101293.98
101294.01
101294.03
101294.05
101293.94
101292.25
101292.35
101292.33
101292.3
101292.27
101290.42
101290.45
101290.47
101290.5
101290.42
101288.41
101288.47
101288.44
101288.41
101288.38
101286.16
101286.19
101286.22
101286.25
101286.21
101283.79
101283.8
101283.77
101283.74
101283.7
101280.98
101281.02
101281.05
101281.09
101281.11
101278.14
101278.08
101278.04
101278.01
101277.97
101274.6
101274.64
101274.68
101274.73
101274.83
101271.12
101270.97
101270.92
101270.88
101270.84
101266.61
101266.66
101266.7
101266.76
101266.97
101262.27
101261.99
101261.92
101261.87
101261.82
101256.4
101256.45
101256.52
101256.59
101256.95
101250.88
101250.43
101250.34
101250.27
101250.2
101243.09
101243.16
101243.25
101243.35
101243.92
101235.89
101235.18
101235.05
101234.95
101234.87
101225.29
101225.39
101225.51
101225.66
101226.54
101215.59
101214.5
101214.32
101214.17
101214.05
101200.75
101200.9
101201.08
101201.3
101202.65
101187.15
101185.48
101185.2
101184.98
101184.8
101165.51
101165.73
101166.01
101166.36
101168.43
101146.08
101143.58
101143.14
101142.78
101142.51
101114.07
101114.42
101114.87
101115.42
101118.07
101079.12
101076.77
101076.1
101075.51
101075.06
101030.54
101031.01
101031.84
101032.78
101036.46
101021.22
101011.99
101010.25
101008.96
101008.59
100924.44
100924.54
100923.88
100924.12
100923.08
100556.18
100410.83
100395.23
100383.49
100365.21
100517.12
100546.04
100567.33
100590.49
100771.74
101210.29
101313.8
101318.94
101321.83
101320.17
100957.5
100976.57
100985.56
100996.03
101084.25
101565.41
101553.5
101533.5
101510.22
101480.72
101841.32
101988.26
102008.61
102023.02
102026.95
102116.72
102109.87
102102.41
102083.13
101789.4
101624.05
101655.52
101647.9
101639.21
101617.09
101507.3
101515.47
101518.85
101519.67
101459.36
101288
101368.98
101377.31
101382.7
101387.98
101164.36
101174.97
101184.02
101189.17
101190.7
100635.17
100420.32
100392.07
100367.01
100328.94
100497.66
100507.32
100511.8
100520.29
100604.17
100931.84
100927.6
100926.02
100924.94
100923.78
101005.32
101006.11
101007.46
101009.1
101013.66
101033.46
101032.48
101031.56
101030.71
101030.13
101075.61
101076.09
101076.74
101077.42
101078.67
101117.66
101115.86
101115.3
101114.8
101114.43
101142.72
101143.01
101143.39
101143.83
101145.63
101168.06
101166.48
101166.14
101165.84
101165.61
101184.75
101184.94
101185.17
101185.45
101186.79
101202.3
101201.18
101200.96
101200.77
101200.62
101213.89
101214.02
101214.17
101214.35
101215.27
101226.25
101225.5
101225.35
101225.22
101225.12
101234.7
101234.79
101234.89
101235.02
101235.63
101243.7
101243.22
101243.11
101243.02
101242.94
101250.07
101250.14
101250.21
101250.31
101250.69
101256.79
101256.49
101256.41
101256.34
101256.28
101261.71
101261.77
101261.83
101261.9
101262.13
101266.84
101266.67
101266.61
101266.56
101266.51
101270.75
101270.8
101270.85
101270.9
101271.02
101274.73
101274.66
101274.61
101274.57
101274.52
101277.89
101277.93
101277.97
101278.02
101278.05
101281.03
101281.03
101280.99
101280.95
101280.91
101283.64
101283.67
101283.71
101283.74
101283.72
101286.14
101286.19
101286.16
101286.13
101286.09
101288.32
101288.36
101288.39
101288.42
101288.35
101290.36
101290.44
101290.42
101290.39
101290.36
101292.22
101292.25
101292.28
101292.3
101292.2
101293.89
101294.01
101293.98
101293.96
101293.93
101295.51
101295.54
101295.56
101295.58
101295.45
101296.9
101297.04
101297.02
101297
101296.97
101298.34
101298.37
101298.38
101298.4
101298.25
101299.52
101299.68
101299.67
101299.65
101299.63
101299.67
101299.69
101299.71
101299.72
101299.52
101298.26
101298.45
101298.43
101298.42
101298.39
101297.04
101297.06
101297.08
101297.1
101296.92
101295.49
101295.65
101295.63
101295.61
101295.59
101294.01
101294.04
101294.06
101294.08
101293.93
101292.25
101292.38
101292.36
101292.34
101292.31
101290.45
101290.48
101290.5
101290.53
101290.42
101288.41
101288.5
101288.47
101288.45
101288.42
101286.19
101286.22
101286.25
101286.28
101286.22
101283.8
101283.83
101283.8
101283.77
101283.74
101281.02
101281.05
101281.08
101281.12
101281.13
101278.16
101278.11
101278.07
101278.04
101278
101274.64
101274.68
101274.72
101274.76
101274.86
101271.16
101271.01
101270.96
101270.92
101270.88
101266.64
101266.69
101266.73
101266.79
101267.01
101262.32
101262.03
101261.96
101261.91
101261.86
101256.44
101256.49
101256.55
101256.62
101257.01
101250.96
101250.47
101250.38
101250.31
101250.25
101243.15
101243.22
101243.3
101243.41
101244.03
101236.03
101235.26
101235.13
101235.04
101234.96
101225.43
101225.52
101225.63
101225.78
101226.74
101215.85
101214.68
101214.5
101214.37
101214.26
101201.08
101201.22
101201.38
101201.6
101203.02
101187.69
101185.98
101185.71
101185.5
101185.34
101166.39
101166.59
101166.86
101167.19
101169.19
101147.16
101144.94
101144.51
101144.16
101143.9
101115.83
101116.16
101116.64
101117.19
101119.25
101080.08
101079.03
101078.36
101077.73
101077.3
101033.58
101034.12
101034.98
101035.9
101036.66
101020.32
101014.38
101012.56
101011.1
101010.34
100931.41
100931.96
100932.33
100933.91
100936.25
100626.25
100530.04
100522.02
100516.68
100506.95
100407.71
100440.05
100463.45
100490.44
100731.96
101081.26
101103.99
101102.59
101101.32
101092.2
100840.63
100871.6
100899.71
100927.11
101150.56
101591.01
101947
101987.93
102023.42
102058.47
101052.97
101075.75
101093.24
101108.05
101192.16
100952.74
100878.61
100866
100856.58
100833.24
100898.16
100901.24
100901.89
100902.53
100896.79
100550.36
100339.57
100314.47
100292.76
100264.86
100915.85
100916.46
100916.27
100916.98
100917.35
101022.98
101015.51
101013.58
101012.05
101011.47
101030.91
101031.49
101032.45
101033.53
101036.92
101079
101076.95
101076.21
101075.53
101075.03
101114.08
101114.47
101115
101115.6
101118.05
101146.05
101143.68
101143.2
101142.78
101142.49
101165.43
101165.67
101166
101166.38
101168.38
101187.09
101185.45
101185.15
101184.89
101184.7
101200.63
101200.79
101200.99
101201.24
101202.59
101215.52
101214.41
101214.21
101214.05
101213.92
101225.16
101225.27
101225.41
101225.57
101226.48
101235.83
101235.09
101234.95
101234.84
101234.75
101242.98
101243.06
101243.16
101243.27
101243.88
101250.84
101250.35
101250.26
101250.18
101250.11
101256.31
101256.37
101256.44
101256.52
101256.92
101262.23
101261.92
101261.85
101261.79
101261.74
101266.52
101266.57
101266.62
101266.69
101266.93
101271.09
101270.91
101270.85
101270.81
101270.76
101274.53
101274.57
101274.61
101274.66
101274.79
101278.1
101278.01
101277.97
101277.93
101277.89
101280.91
101280.95
101280.98
101281.02
101281.07
101283.75
101283.73
101283.7
101283.67
101283.63
101286.09
101286.12
101286.15
101286.18
101286.17
101288.37
101288.4
101288.38
101288.35
101288.32
101290.35
101290.38
101290.41
101290.44
101290.37
101292.21
101292.29
101292.26
101292.24
101292.21
101293.92
101293.94
101293.97
101293.99
101293.89
101295.45
101295.56
101295.54
101295.51
101295.49
101296.94
101296.97
101296.99
101297.01
101296.88
101298.22
101298.36
101298.34
101298.32
101298.3
101299.57
101299.59
101299.61
101299.63
101299.48
101299.51
101299.66
101299.65
101299.63
101299.6
101298.35
101298.37
101298.39
101298.4
101298.26
101296.92
101297.06
101297.04
101297.02
101297
101295.54
101295.57
101295.59
101295.61
101295.48
101293.93
101294.04
101294.02
101294
101293.97
101292.26
101292.29
101292.32
101292.34
101292.24
101290.4
101290.48
101290.46
101290.43
101290.4
101288.38
101288.41
101288.44
101288.46
101288.4
101286.2
101286.23
101286.2
101286.17
101286.14
101283.69
101283.72
101283.75
101283.78
101283.77
101281.1
101281.08
101281.04
101281.01
101280.97
101277.95
101277.99
101278.03
101278.07
101278.12
101274.81
101274.72
101274.67
101274.63
101274.59
101270.83
101270.87
101270.92
101270.97
101271.11
101266.95
101266.74
101266.69
101266.64
101266.59
101261.82
101261.87
101261.93
101261.99
101262.26
101256.93
101256.58
101256.51
101256.45
101256.39
101250.2
101250.27
101250.34
101250.43
101250.87
101243.91
101243.36
101243.25
101243.17
101243.1
101234.88
101234.96
101235.06
101235.19
101235.88
101226.53
101225.68
101225.53
101225.41
101225.31
101214.08
101214.2
101214.35
101214.53
101215.58
101202.65
101201.36
101201.14
101200.95
101200.81
101184.89
101185.07
101185.3
101185.58
101187.16
101168.47
101166.51
101166.16
101165.86
101165.65
101142.62
101142.9
101143.27
101143.72
101146.13
101118.21
101115.54
101114.96
101114.48
101114.11
101075.15
101075.61
101076.23
101076.94
101079.41
101035.36
101031.93
101030.96
101030.1
101029.58
101005.79
101006.29
101007.69
101009.53
101018.76
100933.81
100935.75
100935.52
100936.27
100936.28
100425.97
100440.25
100448.03
100459.06
100570.08
100656.54
100390
100355.48
100325.37
100285.45
101581.97
101570.04
101557.39
101540.39
101358.6
101006.4
100884.8
100871.28
100862.77
100842.74
101220.01
101135.77
101206.14
101125.13
100946.62
100925.14
100905.59
100877.88
101380.24
101376.97
101373.43
101367.6
101312.56
101714.63
101724.27
101729.2
101727.12
101706.71
101454.32
101521.99
101518.61
101512.54
101490.6
101070.91
101104.8
101120.99
101139.48
101230.65
101456.95
101500.24
101503.48
101502.69
101500.23
101481.22
101768.74
101439.59
101515.53
101310.46
101312.71
101306.66
101310.43
101307.65
101306.35
101307.4
101307.45
101299.59
101299.62
101299.64
101299.65
101299.5
101298.26
101298.4
101298.39
101298.37
101298.34
101297
101297.02
101297.04
101297.06
101296.93
101295.49
101295.62
101295.6
101295.58
101295.55
101293.98
101294.01
101294.03
101294.06
101293.94
101292.25
101292.36
101292.33
101292.31
101292.28
101290.42
101290.45
101290.48
101290.5
101290.41
101288.4
101288.47
101288.44
101288.42
101288.38
101286.15
101286.19
101286.22
101286.25
101286.2
101283.77
101283.8
101283.77
101283.74
101283.7
101280.98
101281.01
101281.05
101281.09
101281.08
101278.1
101278.07
101278.03
101277.99
101277.95
101274.58
101274.63
101274.67
101274.72
101274.78
101271.07
101270.97
101270.92
101270.87
101270.82
101266.58
101266.63
101266.68
101266.74
101266.9
101262.19
101261.98
101261.91
101261.85
101261.79
101256.35
101256.42
101256.48
101256.56
101256.85
101250.75
101250.38
101250.29
101250.21
101250.14
101243.02
101243.1
101243.19
101243.3
101243.77
101235.71
101235.11
101234.98
101234.88
101234.79
101225.2
101225.31
101225.44
101225.59
101226.33
101215.34
101214.44
101214.26
101214.1
101213.98
101200.71
101200.86
101201.05
101201.28
101202.38
101186.88
101185.55
101185.27
101185.03
101184.85
101165.67
101165.9
101166.2
101166.55
101168.16
101145.76
101143.89
101143.44
101143.05
101142.76
101114.25
101114.63
101115.13
101115.69
101117.57
101077.8
101076.45
101075.77
101075.13
101074.66
101031.87
101032.42
101033.29
101034.24
101035.73
101022.04
101018.31
101016.59
101015.15
101014.44
100899.59
100900.76
100901.79
100903.34
100904.98
100557.11
100381.84
100363.13
100348.19
100327.7
100884.83
100893.09
100894.06
100896.4
100900.57
100873.63
100720.04
100699.99
100682.8
100650.43
101261.22
101268.2
101279.47
101286.4
101319.5
101551.81
101554.64
101559.46
101547.72
101377.77
101400.1
101399.26
101404.59
101354.91
101372.53
101418.46
101407.02
101399.28
101372.62
102341.7
102299.35
102262.91
102216.32
101855.31
101765.25
102013.75
102035.09
102050.68
102066.74
101260.76
101267.75
101279.05
101286
101319.34
100873.5
100719.83
100699.78
100682.61
100650.23
100884.74
100893
100893.97
100896.31
100900.51
100557.11
100381.73
100363.02
100348.05
100327.57
100899.71
100900.87
100901.88
100903.43
100905.07
101022.07
101018.32
101016.6
101015.15
101014.44
101031.9
101032.45
101033.32
101034.27
101035.77
101077.81
101076.46
101075.78
101075.15
101074.67
101114.26
101114.63
101115.13
101115.7
101117.58
101145.77
101143.89
101143.44
101143.06
101142.76
101165.66
101165.89
101166.19
101166.54
101168.16
101186.87
101185.54
101185.25
101185.02
101184.83
101200.71
101200.86
101201.05
101201.28
101202.38
101215.34
101214.44
101214.25
101214.1
101213.97
101225.2
101225.31
101225.44
101225.59
101226.33
101235.7
101235.11
101234.98
101234.87
101234.78
101243.01
101243.09
101243.18
101243.29
101243.76
101250.75
101250.38
101250.28
101250.21
101250.14
101256.34
101256.41
101256.47
101256.55
101256.84
101262.17
101261.96
101261.89
101261.83
101261.77
101266.56
101266.61
101266.67
101266.73
101266.88
101271.05
101270.94
101270.89
101270.84
101270.8
101274.56
101274.61
101274.65
101274.7
101274.76
101278.08
101278.05
101278
101277.97
101277.92
101280.94
101280.98
101281.02
101281.06
101281.05
101283.73
101283.76
101283.72
101283.69
101283.65
101286.11
101286.15
101286.18
101286.21
101286.16
101288.36
101288.43
101288.4
101288.37
101288.34
101290.37
101290.4
101290.43
101290.45
101290.36
101292.2
101292.3
101292.28
101292.25
101292.22
101293.92
101293.95
101293.98
101294
101293.88
101295.43
101295.56
101295.54
101295.52
101295.49
101296.94
101296.97
101296.99
101297.01
101296.87
101298.21
101298.35
101298.33
101298.31
101298.29
101299.56
101299.58
101299.6
101299.62
101299.46
101300.66
101300.85
101300.84
101300.83
101300.81
101299.5
101299.65
101299.64
101299.62
101299.6
101298.34
101298.37
101298.39
101298.4
101298.26
101296.93
101297.06
101297.04
101297.02
101297
101295.55
101295.58
101295.6
101295.62
101295.5
101293.95
101294.05
101294.03
101294.01
101293.98
101292.28
101292.31
101292.33
101292.35
101292.27
101290.44
101290.5
101290.48
101290.45
101290.42
101288.39
101288.42
101288.45
101288.48
101288.43
101286.23
101286.25
101286.22
101286.19
101286.16
101283.7
101283.73
101283.77
101283.8
101283.81
101281.13
101281.09
101281.05
101281.02
101280.98
101277.97
101278.01
101278.04
101278.09
101278.16
101274.85
101274.73
101274.69
101274.65
101274.6
101270.84
101270.88
101270.93
101270.98
101271.15
101267
101266.77
101266.7
101266.65
101266.6
101261.82
101261.88
101261.94
101262.01
101262.31
101256.99
101256.61
101256.53
101256.46
101256.4
101250.21
101250.28
101250.35
101250.45
101250.93
101243.98
101243.38
101243.27
101243.18
101243.1
101234.87
101234.96
101235.07
101235.2
101235.94
101226.6
101225.71
101225.55
101225.41
101225.31
101214.08
101214.21
101214.37
101214.57
101215.65
101202.74
101201.41
101201.17
101200.97
101200.82
101184.91
101185.1
101185.35
101185.65
101187.26
101168.57
101166.6
101166.22
101165.9
101165.67
101142.74
101143.04
101143.44
101143.92
101146.27
101118.29
101115.86
101115.26
101114.73
101114.34
101075.33
101075.82
101076.5
101077.23
101079.25
101037.22
101033.88
101032.81
101031.85
101031.28
101011.85
101012.43
101013.95
101015.86
101023.28
100917.49
100917.32
100916.66
100916.9
100916.3
100265.6
100293.49
100315.22
100340.33
100551.06
100897.36
100903.17
100902.54
100901.91
100898.83
100834.13
100857.43
100866.83
100879.42
100953.35
101192.47
101109.05
101094.32
101076.91
101054.23
102058.39
102023.49
101988.07
101947.11
101590.86
101150.63
100927.92
100900.63
100872.62
100841.79
101383.84
101378.84
101373.71
101365.66
101287.18
101205.27
101251.93
101256.25
101259.91
101257.09
100874.76
100899.67
100912.22
100930.11
101072.78
101006.82
100884.82
100871.29
100862.74
100842.62
100959.03
100978.11
100987.1
100997.56
101085.59
101125.99
100946.87
100925.35
100905.76
100878.02
101380.93
101377.65
101374.11
101368.27
101313
100895.66
100752.03
100729.66
100707.48
100674.67
100870.47
100878.07
100880.37
100884.07
100902.71
100546.77
100368.31
100349.58
100334.83
100312.82
100903.4
100904.69
100905.92
100907.3
100906.04
101022.54
101019.05
101017.25
101015.72
101015.09
101031.82
101032.38
101033.3
101034.27
101035.49
101077.98
101076.93
101076.25
101075.59
101075.11
101114.77
101115.15
101115.65
101116.22
101117.84
101145.94
101144.26
101143.82
101143.43
101143.14
101165.94
101166.17
101166.46
101166.81
101168.27
101186.97
101185.74
101185.46
101185.23
101185.04
101200.87
101201.02
101201.21
101201.43
101202.46
101215.41
101214.56
101214.38
101214.23
101214.1
101225.31
101225.42
101225.54
101225.69
101226.38
101235.75
101235.19
101235.07
101234.97
101234.88
101243.09
101243.17
101243.26
101243.36
101243.81
101250.79
101250.44
101250.35
101250.27
101250.2
101256.4
101256.46
101256.52
101256.6
101256.87
101262.21
101262.01
101261.95
101261.89
101261.83
101266.6
101266.65
101266.71
101266.76
101266.91
101271.07
101270.98
101270.93
101270.88
101270.83
101274.59
101274.64
101274.68
101274.73
101274.78
101278.09
101278.07
101278.03
101278
101277.95
101280.96
101281
101281.04
101281.07
101281.07
101283.75
101283.79
101283.75
101283.72
101283.68
101286.13
101286.17
101286.2
101286.23
101286.17
101288.37
101288.45
101288.42
101288.4
101288.36
101290.39
101290.42
101290.44
101290.47
101290.38
101292.21
101292.32
101292.29
101292.27
101292.24
101293.94
101293.97
101293.99
101294.01
101293.89
101295.45
101295.58
101295.56
101295.54
101295.51
101296.96
101296.99
101297.01
101297.03
101296.88
101298.22
101298.37
101298.35
101298.34
101298.31
101299.57
101299.59
101299.61
101299.63
101299.46
101300.63
101300.79
101300.78
101300.76
101300.74
101299.52
101299.68
101299.67
101299.65
101299.63
101298.37
101298.39
101298.41
101298.43
101298.27
101296.93
101297.08
101297.06
101297.04
101297.01
101295.56
101295.59
101295.61
101295.63
101295.5
101293.94
101294.06
101294.04
101294.02
101293.99
101292.28
101292.31
101292.34
101292.36
101292.25
101290.41
101290.51
101290.48
101290.45
101290.42
101288.4
101288.43
101288.46
101288.48
101288.41
101286.2
101286.26
101286.23
101286.2
101286.16
101283.7
101283.74
101283.77
101283.8
101283.77
101281.08
101281.09
101281.05
101281.02
101280.98
101277.97
101278.01
101278.05
101278.09
101278.11
101274.79
101274.73
101274.69
101274.65
101274.6
101270.83
101270.88
101270.92
101270.97
101271.07
101266.9
101266.76
101266.7
101266.65
101266.6
101261.81
101261.87
101261.93
101261.99
101262.2
101256.85
101256.58
101256.5
101256.44
101256.38
101250.18
101250.25
101250.33
101250.42
101250.77
101243.78
101243.33
101243.22
101243.14
101243.06
101234.83
101234.92
101235.03
101235.15
101235.71
101226.34
101225.64
101225.49
101225.37
101225.27
101214.04
101214.17
101214.32
101214.5
101215.35
101202.4
101201.36
101201.14
101200.95
101200.8
101184.96
101185.15
101185.38
101185.66
101186.9
101168.19
101166.72
101166.37
101166.07
101165.84
101143.03
101143.32
101143.71
101144.15
101145.84
101117.72
101116.08
101115.52
101115.01
101114.63
101074.95
101075.43
101076.09
101076.78
101077.85
101035.32
101034.08
101033.1
101032.19
101031.63
101014.94
101015.58
101017.11
101018.92
101022.4
100905.72
100907.11
100905.74
100904.49
100903.2
100312.17
100334.15
100348.88
100367.61
100546.26
100902.45
100883.79
100880.09
100877.8
100870.21
100674.38
100707.16
100729.3
100751.65
100895.31
101017.69
100941.01
100931.41
100921.89
100905.18
100662.95
100682.92
100694.97
100709.51
100826.33
100602.28
100458.08
100444.85
100435.29
100420.59
100917.84
100918.42
100919.22
100920.66
100926.56
101023.97
101018.35
101016.75
101015.41
101014.87
101033.44
101033.89
101034.68
101035.53
101036.74
101079.27
101078.06
101077.44
101076.87
101076.48
101115.7
101116.01
101116.44
101116.95
101119.06
101147.1
101144.88
101144.48
101144.16
101143.93
101166.46
101166.64
101166.89
101167.2
101169.16
101187.67
101186.03
101185.78
101185.59
101185.44
101201.19
101201.31
101201.47
101201.67
101203.02
101215.86
101214.76
101214.6
101214.47
101214.37
101225.54
101225.63
101225.74
101225.87
101226.76
101236.05
101235.34
101235.23
101235.14
101235.07
101243.26
101243.32
101243.4
101243.49
101244.05
101250.99
101250.56
101250.48
101250.41
101250.35
101256.54
101256.59
101256.64
101256.71
101257.04
101262.36
101262.11
101262.05
101262.01
101261.96
101266.73
101266.78
101266.82
101266.87
101267.04
101271.19
101271.08
101271.04
101271
101270.96
101274.72
101274.76
101274.79
101274.83
101274.89
101278.19
101278.18
101278.15
101278.12
101278.08
101281.09
101281.13
101281.16
101281.19
101281.16
101283.83
101283.9
101283.87
101283.84
101283.81
101286.26
101286.29
101286.32
101286.34
101286.26
101288.46
101288.57
101288.54
101288.52
101288.49
101290.52
101290.55
101290.57
101290.59
101290.46
101292.29
101292.44
101292.42
101292.4
101292.38
101294.08
101294.1
101294.12
101294.14
101293.98
101295.53
101295.7
101295.69
101295.67
101295.65
101297.09
101297.12
101297.13
101297.15
101296.96
101298.3
101298.49
101298.48
101298.46
101298.44
101299.7
101299.72
101299.74
101299.75
101299.54
101299.54
101299.74
101299.73
101299.71
101299.69
101298.44
101298.46
101298.48
101298.49
101298.3
101296.97
101297.15
101297.13
101297.12
101297.09
101295.65
101295.67
101295.69
101295.71
101295.54
101293.99
101294.14
101294.12
101294.1
101294.08
101292.38
101292.4
101292.42
101292.44
101292.31
101290.48
101290.59
101290.57
101290.55
101290.52
101288.49
101288.52
101288.54
101288.57
101288.47
101286.27
101286.34
101286.32
101286.29
101286.26
101283.8
101283.84
101283.86
101283.89
101283.85
101281.18
101281.18
101281.15
101281.12
101281.09
101278.07
101278.11
101278.14
101278.18
101278.21
101274.91
101274.83
101274.78
101274.75
101274.71
101270.95
101270.99
101271.03
101271.08
101271.21
101267.06
101266.86
101266.8
101266.76
101266.72
101261.94
101261.99
101262.04
101262.1
101262.38
101257.07
101256.7
101256.63
101256.57
101256.51
101250.33
101250.39
101250.46
101250.54
101251.02
101244.09
101243.48
101243.38
101243.3
101243.23
101235.04
101235.12
101235.21
101235.33
101236.09
101226.8
101225.85
101225.71
101225.6
101225.51
101214.33
101214.44
101214.57
101214.74
101215.91
101203.08
101201.66
101201.44
101201.28
101201.15
101185.4
101185.56
101185.76
101186.03
101187.75
101169.24
101167.21
101166.88
101166.62
101166.43
101143.9
101144.15
101144.48
101144.9
101147.2
101119.17
101116.93
101116.4
101115.96
101115.63
101076.46
101076.87
101077.45
101078.08
101079.66
101037.73
101035.78
101034.9
101034.11
101033.58
101012.62
101013.35
101014.71
101016.39
101023.91
100927.23
100920.36
100919.17
100918.54
100918.03
100488.41
100496.82
100500.74
100508.66
100610.33
100782.15
100558.53
100531.17
100505.03
100470.92
101005.46
101010.79
101011.19
101011.4
101023.46
101118.66
100926.8
100905.88
100889.49
100862.47
101465.43
101492.34
101514.11
101532.74
101539.6
101178.79
101137.21
101127.42