/*--------------------------------*- C++ -*----------------------------------*\
  =========                 |
  \\      /  F ield         | OpenFOAM: The Open Source CFD Toolbox
   \\    /   O peration     | Website:  https://openfoam.org
    \\  /    A nd           | Version:  7
     \\/     M anipulation  |
\*---------------------------------------------------------------------------*/
FoamFile
{
    version     2.0;
    format      ascii;
    class       volVectorField;
    location    "490";
    object      U;
}
// * * * * * * * * * * * * * * * * * * * * * * * * * * * * * * * * * * * * * //

dimensions      [0 1 -1 0 0 0 0];

internalField   nonuniform List<vector> 
24789
(
(96.605892 -0.00018605912 -0.0031224594)
(105.51057 -0.0015721244 -0.003617816)
(108.83063 -0.0032544793 -0.0044216577)
(110.68249 -0.0046720772 -0.0051015841)
(117.71688 -0.010026879 -0.0070271497)
(117.73107 -0.010315469 -0.0073566673)
(110.72049 -0.0047457986 -0.0052558175)
(108.87556 -0.0033056045 -0.0045498018)
(105.56806 -0.0016193599 -0.0037334669)
(96.688479 -0.00021794139 -0.0031840751)
(96.772509 -0.00016544846 -0.003385354)
(105.62682 -0.001607115 -0.0039590191)
(108.92169 -0.0033315682 -0.0047898573)
(110.75964 -0.0048126507 -0.0055153489)
(117.74611 -0.010693842 -0.0077726653)
(117.76226 -0.011125943 -0.0082224169)
(110.8003 -0.0048655976 -0.0057733129)
(108.9694 -0.0033316684 -0.005021621)
(105.68728 -0.0015586279 -0.0041697943)
(96.858469 -7.605988e-05 -0.0035757425)
(96.946547 1.047455e-05 -0.0037663628)
(105.74958 -0.0015160868 -0.0043810677)
(109.01885 -0.0033423831 -0.0052581373)
(110.84262 -0.0049336377 -0.0060399811)
(117.77963 -0.011608882 -0.0087080906)
(117.79834 -0.012151322 -0.0092345844)
(110.88677 -0.0050208925 -0.0063206648)
(109.07022 -0.0033663001 -0.0055044239)
(105.81393 -0.0014815413 -0.0045983166)
(97.036953 9.3338223e-05 -0.0039600742)
(97.12989 0.0001760631 -0.0041592464)
(105.88053 -0.001450615 -0.0048232252)
(109.12371 -0.0033997799 -0.0057621523)
(110.93294 -0.00512395 -0.0066169798)
(117.81854 -0.012755523 -0.0098066686)
(117.84037 -0.013434349 -0.010435485)
(110.98135 -0.0052482258 -0.0069371801)
(109.17955 -0.0034467729 -0.0060390741)
(105.94962 -0.001427057 -0.005064021)
(97.225615 0.00025630251 -0.0043710583)
(97.32438 0.000335847 -0.0046135432)
(106.02145 -0.001419651 -0.0053393367)
(109.23798 -0.0035190011 -0.0063538984)
(111.03225 -0.0054060314 -0.0072992426)
(117.86401 -0.014206649 -0.011136964)
(117.88967 -0.015077309 -0.011904412)
(111.08591 -0.0055778306 -0.0076560503)
(109.29931 -0.0035929605 -0.0066531293)
(106.09635 -0.0014034805 -0.0055900799)
(97.42653 0.00042366495 -0.0048303232)
(97.532457 0.00051675506 -0.0051002649)
(106.17472 -0.0013970304 -0.0059002817)
(109.36394 -0.0036897296 -0.0070148817)
(111.14272 -0.0057863215 -0.0080797981)
(117.9176 -0.016078021 -0.012773565)
(117.94807 -0.017230614 -0.013755149)
(111.20307 -0.0060308354 -0.0085509446)
(109.43227 -0.0038053436 -0.0074151357)
(106.25699 -0.0013932023 -0.0062421176)
(97.642614 0.00062148677 -0.005399346)
(97.75758 0.00073645571 -0.0057388742)
(106.34375 -0.0013971595 -0.0066289114)
(109.50488 -0.0039480339 -0.0078677619)
(111.2675 -0.006322713 -0.0090841395)
(117.98143 -0.018569711 -0.014871627)
(118.01809 -0.020135731 -0.016153318)
(111.33661 -0.0066719082 -0.009691235)
(109.5824 -0.0041218883 -0.008381325)
(106.43567 -0.001407352 -0.0070665651)
(97.878054 0.00086755205 -0.0061248326)
(98.004911 0.0010200247 -0.0065762813)
(106.53364 -0.0014251057 -0.0075739904)
(109.66567 -0.0043350383 -0.0089753407)
(111.41119 -0.0070927947 -0.010393457)
(118.05856 -0.021981672 -0.01763321)
(118.10344 -0.024175854 -0.019356889)
(111.49222 -0.0076014837 -0.011218061)
(109.75572 -0.0045943385 -0.0096740164)
(106.63871 -0.0014478662 -0.0081735905)
(98.139245 0.0012059719 -0.0071160934)
(98.28244 0.0014365481 -0.0077713534)
(106.75228 -0.0014746481 -0.008894693)
(109.85384 -0.0049102063 -0.010510213)
(111.5809 -0.0082200178 -0.012201572)
(118.15345 -0.026803222 -0.02138068)
(118.20951 -0.029967123 -0.023783797)
(111.67878 -0.0089644965 -0.013395934)
(109.96167 -0.0052802524 -0.011529875)
(106.87605 -0.0014860487 -0.0097790251)
(98.436271 0.0017380092 -0.008579715)
(98.603034 0.0021333197 -0.009665566)
(107.01228 -0.0014995864 -0.01095409)
(110.08132 -0.0057474141 -0.012858641)
(111.7878 -0.0098995968 -0.014926396)
(118.27273 -0.033835735 -0.02668105)
(118.34447 -0.03862265 -0.030154383)
(111.91053 -0.011095164 -0.016775997)
(110.21556 -0.0063483872 -0.014464311)
(107.16392 -0.0015180034 -0.012373891)
(98.785742 0.0026328464 -0.010997413)
(98.988423 0.0032256983 -0.012640243)
(107.33488 -0.001585062 -0.014125907)
(110.36804 -0.0071579849 -0.016444617)
(112.05035 -0.012662083 -0.019054182)
(118.42645 -0.04462611 -0.034365211)
(118.52087 -0.052172402 -0.039524393)
(112.2116 -0.014718316 -0.021874793)
(110.54347 -0.0082531946 -0.018888582)
(107.53022 -0.0017365685 -0.016271725)
(99.21633 0.0038999608 -0.014629989)
(99.476458 0.0046391083 -0.017031659)
(107.75669 -0.0020135791 -0.018937919)
(110.74811 -0.0097306172 -0.021962638)
(112.40001 -0.017424167 -0.025437745)
(118.6305 -0.061734201 -0.045952505)
(118.75887 -0.073938475 -0.054136557)
(112.62322 -0.021020325 -0.029958137)
(110.9903 -0.01175759 -0.02581848)
(108.02328 -0.0025234559 -0.022204122)
(99.778117 0.0053554522 -0.019824862)
(100.13411 0.0058089595 -0.022822635)
(108.34234 -0.0035556088 -0.025990902)
(111.28146 -0.014671554 -0.030489343)
(112.89166 -0.025904983 -0.035579649)
(118.91083 -0.089591892 -0.064736829)
(119.09275 -0.10946516 -0.078652476)
(113.21883 -0.032649348 -0.04233778)
(111.63633 -0.019024681 -0.035815402)
(108.72981 -0.005650796 -0.029947204)
(100.56144 0.0055954444 -0.025615683)
(101.08058 0.0037529556 -0.027097495)
(109.20548 -0.0097858593 -0.033254926)
(112.07312 -0.025803469 -0.041392517)
(113.62127 -0.042251878 -0.050182683)
(119.31148 -0.13407602 -0.096932017)
(119.58 -0.16332952 -0.11971927)
(114.12546 -0.056017241 -0.059240111)
(112.62077 -0.036203467 -0.046980217)
(109.8007 -0.016964998 -0.035046565)
(101.72244 -0.0019890535 -0.025720577)
(102.54132 -0.0098404732 -0.02230557)
(110.56215 -0.026940825 -0.037006605)
(113.32124 -0.049571271 -0.053667644)
(114.77061 -0.073531652 -0.070608429)
(119.9254 -0.19692251 -0.14660821)
(120.35289 -0.24782823 -0.18632737)
(115.56815 -0.097586435 -0.08570268)
(114.18654 -0.067229435 -0.061985307)
(111.50153 -0.040682147 -0.039958448)
(103.56963 -0.01790529 -0.01613597)
(104.75108 -0.022992179 -0.0092150004)
(112.63762 -0.065155033 -0.046216892)
(115.2516 -0.10433412 -0.078123669)
(116.54835 -0.15277353 -0.11291056)
(120.83094 -0.37666666 -0.26275227)
(121.79973 -0.61244296 -0.34642626)
(118.26371 -0.24064983 -0.16221244)
(117.10301 -0.15451368 -0.12120309)
(114.5903 -0.078209431 -0.069042998)
(106.45523 -0.016384023 -0.068833699)
(110.26895 -0.18526219 -0.43383621)
(118.26137 0.014785644 -0.074859278)
(120.54413 -0.15829568 -0.09692852)
(121.44007 -0.2719199 -0.13469052)
(123.52331 -1.0577209 -0.52537301)
(124.25371 -2.9138738 -1.9175733)
(122.57338 -3.3863537 -2.1034188)
(121.78938 -3.4207168 -2.0938839)
(119.74925 -3.3724117 -2.0181111)
(112.37907 -3.4167989 -2.0805169)
(111.95415 -3.7467648 -4.4608477)
(119.21111 -3.6733503 -4.4646299)
(121.24355 -3.8722654 -4.4565107)
(122.05641 -3.9397846 -4.3176986)
(124.03138 -3.9540425 -3.200467)
(123.9168 -5.3294968 -4.2642441)
(122.40197 -6.0372298 -5.0850694)
(121.68057 -6.0691605 -5.1569621)
(119.76319 -5.9518577 -5.1088491)
(112.62996 -5.9028655 -5.0824144)
(112.32275 -7.8205881 -5.9001195)
(118.92013 -8.0288556 -5.8419924)
(120.7669 -8.1354788 -5.8563843)
(121.49673 -8.0935269 -5.7883016)
(123.07956 -7.0803371 -4.8342512)
(124.05763 -5.782772 -3.2481367)
(121.86471 -6.3998362 -4.046626)
(121.07623 -6.4227896 -4.1613135)
(119.11498 -6.2588734 -4.2196235)
(112.09202 -6.4367758 -4.4313907)
(111.58617 -5.6421766 -2.2857627)
(118.76915 -5.7699192 -2.2616993)
(120.80402 -5.7933276 -2.2716845)
(121.6445 -5.6625855 -2.2373507)
(124.04768 -4.5656532 -2.0616032)
(124.1386 -2.7152757 -1.2641218)
(121.98932 -2.5668842 -1.0482823)
(121.14391 -2.5044132 -1.003534)
(118.97312 -2.3527962 -0.93502329)
(111.26253 -2.8159769 -1.1518186)
(108.2501 -0.054670706 -0.15249944)
(116.52206 0.045561165 -0.082891486)
(119.00371 -0.092011699 -0.14350258)
(120.05423 -0.18339468 -0.19603568)
(123.25971 -1.0412276 -0.64613734)
(121.68574 -0.62382657 -0.38028152)
(117.17576 -0.21332807 -0.15102578)
(115.924 -0.13574226 -0.10840427)
(113.28336 -0.076512467 -0.066642956)
(105.04085 -0.025822709 -0.0038821018)
(103.41648 -0.020537309 -0.020670133)
(111.4787 -0.056418675 -0.053059682)
(114.19418 -0.095398927 -0.078287065)
(115.5542 -0.14495942 -0.10324772)
(120.78778 -0.40015845 -0.22084122)
(120.35592 -0.26840201 -0.13967899)
(114.58045 -0.10109013 -0.071831723)
(113.14206 -0.068088141 -0.0575075)
(110.35986 -0.038001435 -0.04257213)
(102.2571 -0.014498854 -0.026519372)
(101.24079 -0.010718395 -0.022940065)
(109.41729 -0.029495401 -0.032708037)
(112.2677 -0.053994862 -0.043160733)
(113.77076 -0.079632455 -0.053683276)
(119.96035 -0.21718093 -0.11073763)
(119.63315 -0.1800211 -0.094445989)
(113.10626 -0.062110212 -0.042917821)
(111.55085 -0.041865923 -0.034401412)
(108.64552 -0.022626859 -0.026345588)
(100.4232 -0.0074170109 -0.019409333)
(99.776387 -0.0049654698 -0.017346333)
(108.0366 -0.01696402 -0.02271996)
(110.98569 -0.031934434 -0.028914064)
(112.58275 -0.047841832 -0.035636976)
(119.37814 -0.14624283 -0.079221056)
(119.1689 -0.11934702 -0.066196415)
(112.16165 -0.037700032 -0.030426146)
(110.53105 -0.02493191 -0.025101664)
(107.54503 -0.012998996 -0.020185905)
(99.246683 -0.0034585175 -0.015865854)
(98.804177 -0.0025013578 -0.014375421)
(107.13944 -0.01022225 -0.017901133)
(110.1574 -0.019971793 -0.021884869)
(111.81561 -0.030410472 -0.026185726)
(118.99311 -0.098172911 -0.055589979)
(118.8453 -0.081697762 -0.046931879)
(111.52845 -0.025092557 -0.022555161)
(109.84708 -0.01643002 -0.019027913)
(106.80104 -0.0083192008 -0.015743861)
(98.430295 -0.0019406874 -0.012827144)
(98.10957 -0.0016275804 -0.011349727)
(106.51489 -0.007001635 -0.013798236)
(109.58604 -0.013862631 -0.016552496)
(111.28719 -0.021155905 -0.019491798)
(118.71986 -0.068870543 -0.039957205)
(118.61241 -0.058733843 -0.034363329)
(111.08178 -0.018176051 -0.016941585)
(109.36341 -0.011956547 -0.014445428)
(106.26939 -0.0060637617 -0.0120904)
(97.830335 -0.0014573509 -0.0099997858)
(97.583981 -0.0013841015 -0.0088026406)
(106.05606 -0.0053933499 -0.010615515)
(109.17117 -0.010528649 -0.012663799)
(110.90479 -0.015901664 -0.01481894)
(118.51971 -0.050661106 -0.02980832)
(118.4391 -0.044194037 -0.026085245)
(110.75047 -0.014152388 -0.013049887)
(109.00311 -0.0094496916 -0.011159418)
(105.86825 -0.0049100246 -0.0093488986)
(97.363808 -0.0013709788 -0.0077552548)
(97.164667 -0.0013830425 -0.0068592083)
(105.70093 -0.0045506707 -0.0082755164)
(108.85445 -0.0086174776 -0.0098971119)
(110.61436 -0.012784423 -0.011577172)
(118.36847 -0.038960054 -0.023001805)
(118.30617 -0.034669258 -0.020422557)
(110.49305 -0.011671823 -0.010378324)
(108.72149 -0.0079370633 -0.0088724853)
(105.55016 -0.0042493368 -0.0074077605)
(96.982643 -0.0013751085 -0.0061421937)
(96.81469 -0.001397443 -0.0054816866)
(105.41298 -0.0040291371 -0.0066275046)
(108.60143 -0.0074086414 -0.0079655897)
(110.38389 -0.010788125 -0.00932942)
(118.25087 -0.031127755 -0.018244316)
(118.2015 -0.028174754 -0.016421934)
(110.28478 -0.010060198 -0.008459169)
(108.49199 -0.0069764729 -0.0072125067)
(105.287 -0.0038515606 -0.0059812695)
(96.658404 -0.001419171 -0.004940928)
(96.511912 -0.001450187 -0.0044504172)
(105.1704 -0.0037133896 -0.0054052703)
(108.39145 -0.0066254835 -0.0065502788)
(110.19407 -0.0094606204 -0.0077009854)
(118.15718 -0.025689919 -0.014865626)
(118.11721 -0.023586056 -0.013529537)
(110.11046 -0.0089640051 -0.0070369751)
(108.29838 -0.006339558 -0.0059647502)
(105.06165 -0.0036076988 -0.0048910345)
(96.373702 -0.0014867965 -0.004009041)
(96.242599 -0.0015277608 -0.003594531)
(104.95962 -0.0035271018 -0.0044212853)
(108.21167 -0.0061022535 -0.0054404747)
(110.03287 -0.0085460839 -0.0064488606)
(118.08099 -0.021787549 -0.01237548)
(118.04804 -0.02023699 -0.011379238)
(109.96046 -0.0081810589 -0.0059497202)
(108.13041 -0.0058920343 -0.0049984266)
(104.86333 -0.0034527707 -0.0040255313)
(96.117635 -0.0015589699 -0.0032445202)
(95.998024 -0.0015973204 -0.0029041109)
(104.77203 -0.0033985114 -0.0036519915)
(108.05388 -0.0057191652 -0.0045873225)
(109.89255 -0.0078735441 -0.0054913577)
(118.01795 -0.018892436 -0.010502729)
(117.99039 -0.01771479 -0.0097342281)
(109.82856 -0.0075974108 -0.0050942888)
(107.98147 -0.0055596355 -0.0042330809)
(104.68509 -0.0033423186 -0.0033324341)
(95.883148 -0.0016219909 -0.002615978)
(95.772465 -0.0016606834 -0.0023305156)
(104.602 -0.0033085947 -0.0030232409)
(107.9127 -0.0054330162 -0.0038961088)
(109.76803 -0.0073667704 -0.0047219982)
(117.96508 -0.016681445 -0.0090502457)
(117.94176 -0.015759835 -0.0084489667)
(109.71056 -0.0071447426 -0.004422139)
(107.84714 -0.0053009414 -0.0036323762)
(104.52232 -0.0032571177 -0.0027898151)
(95.66556 -0.0016705318 -0.0021254596)
(95.562051 -0.0016847391 -0.0019353964)
(104.44571 -0.0032152417 -0.0025764384)
(107.78447 -0.0051860886 -0.0033926505)
(109.65583 -0.0069484838 -0.0041507296)
(117.92025 -0.014935636 -0.007911541)
(117.90036 -0.014197763 -0.0074249038)
(109.60357 -0.0067735842 -0.003899125)
(107.72439 -0.0050845547 -0.0031689824)
(104.37185 -0.0031797359 -0.0023759054)
(95.461636 -0.0017003431 -0.0017555358)
(95.364037 -0.0017165833 -0.0015825253)
(104.30051 -0.00314908 -0.002184883)
(107.66667 -0.0049935671 -0.0029578365)
(109.55354 -0.0066157849 -0.0036634859)
(117.88195 -0.013529625 -0.0069809731)
(117.86488 -0.012928224 -0.0065699537)
(109.50554 -0.006473086 -0.003450012)
(107.61108 -0.0049102063 -0.0027673764)
(104.23145 -0.0031202098 -0.0020115586)
(95.269049 -0.0017309339 -0.0014226361)
(95.176419 -0.0017373669 -0.0012738165)
(104.16445 -0.0030848036 -0.001849341)
(107.55741 -0.0048265328 -0.0025890804)
(109.45938 -0.0063366926 -0.0032504374)
(117.84902 -0.012382542 -0.0061832474)
(117.83424 -0.011914832 -0.0058420459)
(109.41486 -0.0061673067 -0.0030910743)
(107.50548 -0.0046907298 -0.0024473995)
(104.0993 -0.0029773742 -0.0017218916)
(95.085819 -0.0016602542 -0.0011627754)
(94.996204 -0.0016959684 -0.0011239617)
(104.03485 -0.0030886074 -0.0017013842)
(107.45423 -0.0047682291 -0.0024087836)
(109.37103 -0.0062027703 -0.0030315914)
(117.8202 -0.011657478 -0.0056051028)
(117.83204 0.0048159939 -0.011943238)
(109.41377 0.0018895854 -0.0065859432)
(107.50466 0.0012189014 -0.0051627683)
(104.09901 0.00044598895 -0.0035074883)
(95.086654 -0.00014991016 -0.002218735)
(95.177216 -0.00025016334 -0.0023877457)
(104.16408 0.00037176706 -0.0037092422)
(107.5565 0.0011692693 -0.0053882539)
(109.45819 0.0018671968 -0.0068426015)
(117.84669 0.0050384043 -0.012482823)
(117.8624 0.0053196995 -0.013073931)
(109.50424 0.0019061727 -0.0070317928)
(107.61005 0.0011785606 -0.0055261891)
(104.23099 0.00035477938 -0.0038012781)
(95.269822 -0.00028854606 -0.0024428806)
(95.3648 -0.00030846043 -0.0024896513)
(104.29996 0.00035469353 -0.0038863581)
(107.66554 0.0012053132 -0.0056630567)
(109.55213 0.0019636207 -0.0072259316)
(117.8793 0.0056251147 -0.013712157)
(117.89752 0.0059595055 -0.014410992)
(109.60203 0.0020412753 -0.0074362251)
(107.72315 0.0012512184 -0.0058097499)
(104.37123 0.00037127107 -0.0039766925)
(95.462391 -0.00031604896 -0.0025393418)
(95.562797 -0.00032923332 -0.0026014748)
(104.44498 0.00038532854 -0.0040835478)
(107.7831 0.0012981253 -0.0059772411)
(109.65414 0.002123458 -0.0076722797)
(117.91719 0.0063267421 -0.015176838)
(117.93845 0.0067315165 -0.016024499)
(109.7087 0.0022125309 -0.007936416)
(107.84561 0.0013482964 -0.006166456)
(104.52148 0.00039959761 -0.0042067196)
(95.666302 -0.00034542935 -0.0026742295)
(95.773198 -0.00037071613 -0.0027564184)
(104.60102 0.0004085431 -0.0043419836)
(107.91098 0.0013978887 -0.0063741212)
(109.76597 0.0023060058 -0.0082267941)
(117.96146 0.0071802252 -0.016962614)
(117.98643 0.0076877812 -0.018009185)
(109.82628 0.0024317462 -0.0085445117)
(107.97954 0.0014772993 -0.0065984084)
(104.68395 0.0004460756 -0.0044840277)
(95.883858 -0.00036852792 -0.002832266)
(95.998708 -0.00041553102 -0.00293699)
(104.77072 0.00044241266 -0.0046566683)
(108.05172 0.0015246837 -0.0068609137)
(109.89001 0.0025348932 -0.0089097562)
(118.0136 0.0082496566 -0.019189712)
(118.04324 0.0088920885 -0.020526479)
(109.95762 0.0026861365 -0.0093069753)
(108.12797 0.0016191047 -0.0071389892)
(104.8618 0.0004865594 -0.0048317133)
(96.118278 -0.00041207598 -0.0030351014)
(96.243169 -0.00041093865 -0.0031438218)
(104.95782 0.00053625016 -0.0050331331)
(108.20889 0.0017266945 -0.0074581719)
(110.02966 0.0028590477 -0.0097622978)
(118.07567 0.0096285932 -0.02205227)
(118.1113 0.01047514 -0.023808847)
(110.1068 0.0030483393 -0.010281905)
(108.29518 0.0018393648 -0.0078207726)
(105.05952 0.00058091182 -0.0052603106)
(96.374153 -0.00042284337 -0.003267584)
(96.512172 -0.00042144899 -0.0034072054)
(105.16784 0.00064765595 -0.0055207471)
(108.38775 0.0019849133 -0.0082392896)
(110.18989 0.0032825583 -0.010883496)
(118.15059 0.01146303 -0.025847221)
(118.1941 0.012639942 -0.02823786)
(110.27994 0.0035831579 -0.011579452)
(108.48766 0.002181313 -0.0087199819)
(105.28391 0.00075279986 -0.0058138654)
(96.658391 -0.00039003814 -0.0035561117)
(96.814271 -0.00036773875 -0.0037381756)
(105.40919 0.00086609858 -0.0061665974)
(108.59631 0.0024047935 -0.0092967028)
(110.37824 0.0039323609 -0.012413285)
(118.24254 0.014033476 -0.031076825)
(118.29677 0.015717187 -0.034462279)
(110.48641 0.0044526942 -0.013371501)
(108.71539 0.0027875232 -0.0099380199)
(105.54547 0.0011322099 -0.0065296404)
(96.981661 -0.00019676563 -0.0038830413)
(97.162919 9.1226985e-05 -0.0040398426)
(105.69511 0.0015309729 -0.0069484827)
(108.84712 0.0033177221 -0.01069906)
(110.6065 0.0051404386 -0.014521763)
(118.35782 0.017742846 -0.038547985)
(118.427 0.020202982 -0.043519191)
(110.74107 0.0060898176 -0.01589902)
(108.99424 0.004087453 -0.011589988)
(105.861 0.0021435584 -0.0074124191)
(97.361025 0.00056305341 -0.0041735707)
(97.579825 0.0012633926 -0.0042788807)
(106.04696 0.00301112 -0.0079444641)
(109.16036 0.0051479421 -0.012659472)
(110.89348 0.0073696813 -0.017581003)
(118.50592 0.023244989 -0.0496407)
(118.59662 0.027048324 -0.05727649)
(111.06809 0.0090263119 -0.019713298)
(109.35017 0.0065270773 -0.014011344)
(106.25795 0.0041448169 -0.0086067181)
(97.824333 0.0021840333 -0.0043902705)
(98.101173 0.0034331606 -0.0045101063)
(106.50054 0.0056595378 -0.009445193)
(109.56982 0.008352058 -0.015742942)
(111.27061 0.011202333 -0.022449418)
(118.70175 0.031838081 -0.066896681)
(118.82457 0.037851812 -0.079094017)
(111.50841 0.014016498 -0.02601435)
(109.82727 0.010719834 -0.018006972)
(106.78314 0.0076330617 -0.010544047)
(98.418858 0.0050713319 -0.0046523875)
(98.788776 0.0069915439 -0.0049152602)
(107.11707 0.010003419 -0.012099772)
(110.13314 0.01362069 -0.021103533)
(111.79132 0.017507725 -0.030812116)
(118.9694 0.045374818 -0.094760252)
(119.14173 0.055008016 -0.11498864)
(112.13222 0.021826976 -0.03739261)
(110.50138 0.017125025 -0.025446299)
(107.51715 0.012773727 -0.014368801)
(99.22614 0.0091833655 -0.0053993204)
(99.749495 0.011933047 -0.0061001103)
(108.00212 0.016214486 -0.017621811)
(110.94964 0.021575551 -0.03160861)
(112.5473 0.027393778 -0.046613007)
(119.34712 0.067039552 -0.14097768)
(119.59709 0.081030485 -0.17398976)
(113.06299 0.035665415 -0.059653345)
(111.5064 0.028286178 -0.040345477)
(108.60209 0.021620978 -0.022131678)
(100.3872 0.016279366 -0.0071246647)
(101.1907 0.02247288 -0.0086425834)
(109.36311 0.031352554 -0.027282168)
(112.21392 0.040203962 -0.050816729)
(113.7189 0.049058913 -0.075678073)
(119.9172 0.096314081 -0.2109997)
(120.31395 0.1220787 -0.25889295)
(114.52993 0.073239693 -0.09328162)
(113.08841 0.061734013 -0.061037414)
(110.30327 0.048413387 -0.032187887)
(102.19843 0.029336839 -0.010173952)
(103.35746 0.033047361 -0.010240677)
(111.41088 0.079955653 -0.039952947)
(114.13546 0.10492619 -0.076087914)
(115.50249 0.12481448 -0.12463056)
(120.74774 0.20259932 -0.37984414)
(121.58339 0.37019452 -0.61441834)
(117.04081 0.21960098 -0.19659018)
(115.77062 0.18349918 -0.11359524)
(113.09064 0.13624497 -0.052361302)
(104.86775 0.041993913 -0.014279589)
(107.84776 0.12209228 -0.096612697)
(116.34662 0.16882641 0.038627618)
(118.86377 0.22846155 -0.11054713)
(119.92854 0.27935584 -0.20886198)
(123.20236 0.5746276 -1.0023501)
(124.50778 1.1739344 -2.5357507)
(122.71598 0.3654005 -2.5034194)
(121.93681 0.24696712 -2.4777596)
(119.84911 0.095405795 -2.3432556)
(112.19987 0.49506098 -3.0507797)
(110.30785 4.0430086 -7.1583831)
(117.28333 4.2293073 -7.7335421)
(119.38758 4.1444107 -7.7091576)
(120.32762 3.9932488 -7.5437508)
(123.43813 2.836189 -5.7150983)
(123.17209 3.1002108 -5.6083466)
(120.16403 3.2763249 -5.5498288)
(119.23498 3.2697 -5.5039487)
(117.049 3.1793285 -5.2658939)
(109.59676 3.2515343 -5.4595173)
(112.20794 3.6193712 -8.2562006)
(119.12224 3.7410558 -8.3130639)
(121.01656 3.9892529 -8.3908401)
(121.76407 4.1325771 -8.3353973)
(123.37186 4.1478766 -7.0795218)
(122.76607 1.4428173 -6.7319605)
(119.72421 2.2532436 -7.671285)
(118.70446 2.3947389 -7.7741772)
(116.49973 2.5127019 -7.6852037)
(109.27978 2.6145143 -7.44108)
(111.52513 0.54346651 -8.4366481)
(118.2317 0.72969349 -8.8122058)
(120.19302 0.78495448 -8.6960645)
(121.0414 0.79868166 -8.4169939)
(123.47261 0.81317084 -6.4129583)
(124.57208 0.35955528 -2.6996944)
(123.29551 0.51574074 -2.7937617)
(122.60675 0.53421155 -2.7782696)
(120.6733 0.53304994 -2.6600196)
(113.29818 0.65732463 -3.3880604)
(109.19559 0.19110348 -0.23033264)
(117.3791 0.139863 -0.019990291)
(119.72918 0.13601667 -0.154643)
(120.69426 0.12732825 -0.23840984)
(123.22034 0.12537898 -0.91840419)
(121.49693 0.055820218 -0.55932992)
(117.71053 -0.011428578 -0.23470387)
(116.51201 -0.020966832 -0.15923029)
(113.96477 -0.02723328 -0.088081857)
(105.99093 -0.026557128 -0.051058312)
(104.37748 -0.073586669 -0.034612399)
(112.20513 -0.066610697 -0.073984102)
(114.82448 -0.056520909 -0.11152875)
(116.13863 -0.043915269 -0.15671057)
(120.61726 0.027033237 -0.35637051)
(120.18756 0.018505024 -0.2469618)
(115.19295 -0.047716838 -0.11665828)
(113.79386 -0.060156828 -0.086727357)
(111.09776 -0.072104763 -0.059433868)
(103.18346 -0.081173795 -0.035863472)
(102.17019 -0.076125818 -0.031711823)
(110.1813 -0.066563243 -0.048266778)
(112.95621 -0.054834317 -0.070903794)
(114.42474 -0.043313237 -0.094201852)
(119.79851 0.017467383 -0.20326832)
(119.48303 0.015042445 -0.16988952)
(113.81407 -0.039162436 -0.076009798)
(112.29134 -0.049418208 -0.057473305)
(109.45512 -0.060081514 -0.039466523)
(101.38081 -0.069129292 -0.026446655)
(100.76639 -0.061773943 -0.02219559)
(108.89204 -0.053723552 -0.032646155)
(111.77525 -0.044323373 -0.046821576)
(113.33947 -0.035408323 -0.061543271)
(119.23481 0.011910368 -0.14014519)
(119.02955 0.009394718 -0.11554253)
(112.96024 -0.031030762 -0.050474193)
(111.36366 -0.038590426 -0.03858178)
(108.4425 -0.046645878 -0.027174213)
(100.27059 -0.053901477 -0.018660693)
(99.862566 -0.046384358 -0.01576851)
(108.07594 -0.040024058 -0.022790435)
(111.0287 -0.033136962 -0.032164342)
(112.65118 -0.026712873 -0.041943448)
(118.85726 0.0074664839 -0.096015783)
(118.71211 0.0060518988 -0.080689113)
(112.39628 -0.022832066 -0.035326785)
(110.75254 -0.028272056 -0.027176648)
(107.77277 -0.03413577 -0.019345321)
(99.5213 -0.039606451 -0.01346648)
(99.230252 -0.033696059 -0.01155678)
(107.5177 -0.029036793 -0.016555223)
(110.52123 -0.024056094 -0.023224163)
(112.18285 -0.019450293 -0.030129322)
(118.58868 0.0049876955 -0.068611308)
(118.48275 0.0041546421 -0.059052211)
(112.0014 -0.016615745 -0.026123937)
(110.32434 -0.020532939 -0.020187579)
(107.29942 -0.024776199 -0.014409852)
(98.977553 -0.028736527 -0.010065007)
(98.754731 -0.024561595 -0.0088673146)
(107.10985 -0.021191434 -0.01270207)
(110.15443 -0.017559267 -0.017784557)
(111.84512 -0.014208986 -0.02295983)
(118.39119 0.0035321443 -0.051389135)
(118.31142 0.0030774659 -0.045163695)
(111.70874 -0.012129714 -0.020377029)
(110.00577 -0.015008515 -0.015803921)
(106.94282 -0.018132695 -0.011267482)
(98.55531 -0.021013156 -0.007846454)
(98.374513 -0.018044134 -0.0070158541)
(106.79371 -0.015564622 -0.010112861)
(109.87405 -0.012859486 -0.014211943)
(111.58828 -0.010370248 -0.018299987)
(118.24142 0.0027311657 -0.040084688)
(118.17957 0.0024555182 -0.035890126)
(111.4807 -0.0088939282 -0.016579633)
(109.75597 -0.011060132 -0.01288613)
(106.65898 -0.013418567 -0.0091426773)
(98.208707 -0.015568549 -0.0063158017)
(98.055152 -0.013541861 -0.0057723693)
(106.536 -0.011659469 -0.0083870285)
(109.64903 -0.0095845634 -0.011836769)
(111.38365 -0.0076831781 -0.015202195)
(118.12457 0.0022252666 -0.032423053)
(118.07539 0.0020332038 -0.029515281)
(111.29538 -0.0066858153 -0.014060046)
(109.55134 -0.0083690188 -0.010969566)
(106.42274 -0.010209958 -0.0077662789)
(97.91179 -0.011869161 -0.0053343186)
(97.776928 -0.010457194 -0.0049273309)
(106.31758 -0.0089853587 -0.007194896)
(109.46136 -0.0073409357 -0.010194028)
(111.21443 -0.0058412489 -0.013056453)
(118.03118 0.0018752748 -0.027037448)
(117.99123 0.0017448159 -0.024939191)
(111.13966 -0.0051442016 -0.012224908)
(109.37785 -0.0064926643 -0.0095574959)
(106.21921 -0.0079751773 -0.0067317885)
(97.649262 -0.009295135 -0.0045947294)
(97.52779 -0.0083383329 -0.0043197467)
(106.12667 -0.0071447647 -0.0063436849)
(109.29988 -0.0057961342 -0.0090195294)
(111.07016 -0.0045725257 -0.011519137)
(117.95496 0.00163197 -0.023136939)
(117.92191 0.0015325153 -0.02157606)
(111.00523 -0.0041004641 -0.010909459)
(109.22669 -0.005220041 -0.0085545783)
(106.03914 -0.0064567358 -0.0060078826)
(97.411703 -0.0075431678 -0.0040832168)
(97.300298 -0.006871611 -0.0038603029)
(105.95596 -0.00587353 -0.0056940278)
(109.15763 -0.0047314427 -0.0081283495)
(110.94424 -0.0037002268 -0.010357711)
(117.89167 0.0014459959 -0.020201006)
(117.86392 0.001353928 -0.019003107)
(110.88671 -0.0033944831 -0.0099163399)
(109.09219 -0.0043540416 -0.0078021011)
(105.87659 -0.0054196787 -0.0054704838)
(97.193075 -0.0063477313 -0.0037066597)
(97.089606 -0.0059044107 -0.0035600169)
(105.80065 -0.0050414957 -0.0052525735)
(109.03 -0.0040425121 -0.0074931176)
(110.83229 -0.0031447464 -0.0095063848)
(117.83839 0.0012599724 -0.017925901)
(117.81484 0.0011708519 -0.016960306)
(110.78061 -0.0029399079 -0.0091392395)
(108.97068 -0.0037848095 -0.0072175561)
(105.72775 -0.0047269391 -0.0050595289)
(96.989515 -0.0055350778 -0.0034303268)
(96.892488 -0.0052228578 -0.0033120467)
(105.65761 -0.0044621543 -0.0048829591)
(108.91396 -0.0035691948 -0.0069657723)
(110.7314 -0.0027701391 -0.00880444)
(117.79308 0.0010852845 -0.016086093)
(117.77292 0.0010026802 -0.015293995)
(110.68443 -0.0026296103 -0.0085025457)
(108.85958 -0.0033887298 -0.0067396073)
(105.58995 -0.0042385808 -0.0047256865)
(96.798277 -0.00495752 -0.0032075839)
(96.706645 -0.0047258198 -0.003113627)
(105.52457 -0.004045945 -0.0045826391)
(108.80733 -0.0032342354 -0.006533648)
(110.63949 -0.0025105278 -0.0082273848)
(117.75423 0.00092419122 -0.014570032)
(117.73687 0.00084982279 -0.013905723)
(110.59641 -0.0023882404 -0.0079688525)
(108.75703 -0.003077149 -0.0063385378)
(105.46127 -0.0038530608 -0.0044452823)
(96.617397 -0.0044980336 -0.0030222061)
(96.530295 -0.0042641493 -0.0029286648)
(105.39984 -0.0036564337 -0.0043084286)
(108.70848 -0.0029172825 -0.0061492753)
(110.555 -0.0022627411 -0.0077207339)
(117.72071 0.00077875746 -0.013295512)
(117.70561 0.00073992324 -0.012785811)
(110.5151 -0.0021114861 -0.0074829529)
(108.66153 -0.0027325882 -0.0059539749)
(105.34011 -0.0034351882 -0.0041479725)
(96.445087 -0.0040083318 -0.0028015103)
(96.690324 -4.0451016e-05 -0.0035243015)
(105.56845 0.0013309815 -0.0040884949)
(108.87525 0.0029860787 -0.0048726458)
(110.7198 0.0043986096 -0.0055285858)
(117.72872 0.0097518445 -0.0072885616)
(117.74359 0.010168504 -0.0076333225)
(110.75868 0.004492998 -0.0056627321)
(108.9211 0.0030374148 -0.0049777246)
(105.62693 0.0013427027 -0.004169203)
(96.774086 -5.7339443e-05 -0.0035892862)
(96.859929 -7.1683819e-05 -0.0036878103)
(105.68721 0.0013659182 -0.004284436)
(108.96862 0.0031054713 -0.0051155799)
(110.79915 0.0046088583 -0.0058285)
(117.75959 0.010636134 -0.008001349)
(117.77679 0.011154801 -0.0083990189)
(110.84131 0.0047466993 -0.0060019234)
(109.01794 0.0031912468 -0.0052572208)
(105.74941 0.0014030857 -0.0043998802)
(96.947981 -7.7308619e-05 -0.0037847077)
(97.038407 -7.278046e-05 -0.0038708997)
(105.8137 0.0014536879 -0.0045071472)
(109.06921 0.0032948172 -0.005395625)
(110.88535 0.0049067923 -0.0061771535)
(117.79532 0.011727965 -0.0088286962)
(117.81532 0.012358162 -0.0092949701)
(110.93143 0.0050885425 -0.0063556648)
(109.12263 0.0034152103 -0.005532038)
(105.88027 0.0015169328 -0.0046079823)
(97.131419 -5.9074257e-05 -0.003947671)
(97.22723 -3.9962764e-05 -0.0040254667)
(105.94934 0.0015908397 -0.0047128253)
(109.17839 0.0035522758 -0.0056768215)
(110.97974 0.005292694 -0.0065471067)
(117.83693 0.013055475 -0.0098072439)
(117.86032 0.013821774 -0.010368933)
(111.03055 0.0055044968 -0.0067445013)
(109.23677 0.0036881779 -0.0058211514)
(106.02118 0.0016574016 -0.0048127033)
(97.326143 -2.5631495e-05 -0.0040965463)
(97.428433 -3.0808044e-06 -0.0042395164)
(106.09607 0.0017570844 -0.0049917371)
(109.29803 0.0038666302 -0.0060445474)
(111.0841 0.0057671113 -0.0070216849)
(117.88569 0.014698476 -0.011020809)
(117.91328 0.015674674 -0.011731043)
(111.14075 0.006035396 -0.007270907)
(109.36253 0.0040380125 -0.0062280298)
(106.17438 0.0018378599 -0.0051203534)
(97.534469 1.7884353e-06 -0.0043348537)
(97.644772 -3.6373016e-07 -0.0044672747)
(106.25663 0.0019181396 -0.0052923609)
(109.43075 0.0042227158 -0.0064600041)