/*--------------------------------*- C++ -*----------------------------------*\
  =========                 |
  \\      /  F ield         | OpenFOAM: The Open Source CFD Toolbox
   \\    /   O peration     | Website:  https://openfoam.org
    \\  /    A nd           | Version:  7
     \\/     M anipulation  |
\*---------------------------------------------------------------------------*/
FoamFile
{
    version     2.0;
    format      ascii;
    class       volScalarField;
    location    "370";
    object      k;
}
// * * * * * * * * * * * * * * * * * * * * * * * * * * * * * * * * * * * * * //

dimensions      [0 2 -2 0 0 0 0];

internalField   nonuniform List<scalar> 
25201
(
1109.7533
1109.0872
1109.7563
1109.0939
1091.0089
1094.9285
1096.37
1132.3972
1130.663
1126.2207
1130.6608
1094.9263
1093.3569
1050.5479
1046.4841
1065.8681
1061.8395
1057.0341
1051.7175
1041.7376
1048.9894
1057.5688
1060.4751
1054.6838
1045.8243
1039.0651
1047.244
1058.3926
1055.8721
1041.9175
1043.7632
1046.3264
1031.223
1034.0211
1037.6331
1046.4589
1054.8583
1052.2416
1042.8877
1040.0675
1050.3636
1049.2307
1040.8168
1029.6968
1038.5612
1048.2145
1057.7794
1073.0607
1090.5147
1093.3608
1129.7685
1127.3458
1111.3136
1114.0951
1116.9643
1100.2759
1081.887
1078.505
1096.8703
1085.3206
1077.0055
1074.3972
1092.0647
1110.372
1129.1152
1136.107
1133.0694
1123.1406
1103.8967
1097.1008
1078.3803
1071.2759
1075.3602
1094.0924
1091.8791
1073.8686
1066.6819
1069.0774
1060.8083
1063.2556
1066.1104
1068.657
1063.5093
1072.8035
1069.4278
1074.7994
1059.9123
1050.5235
1043.5242
1047.9646
1047.4565
1050.7142
1045.2355
1041.0404
1036.7835
1039.3922
1035.0836
1032.5689
1027.6069
1030.6457
1034.9064
1031.8254
1036.2693
1039.2129
1043.7287
1040.9989
1035.0707
1038.744
1038.6629
1030.2127
1025.8063
1030.1262
1026.2268
1022.018
1015.8233
1020.1738
1024.3698
1020.0066
1024.3214
1030.5648
1034.2874
1028.6323
1032.9753
1028.6665
1021.7987
1027.3934
1029.5275
1038.6806
1047.9854
1042.9148
1040.0973
1038.5934
1048.229
1049.6401
1052.4794
1055.8388
1059.9209
1063.5207
1074.3996
1081.8869
1100.2743
1092.0641
1085.3201
1077.0063
1078.5055
1096.8683
1114.0927
1116.9626
1129.7647
1136.1053
1129.1145
1110.3711
1103.8959
1123.1396
1133.0672
1130.4807
1127.3411
1090.5096
1075.3608
1094.0902
1078.3801
1071.2779
1074.8007
1066.1197
1068.6648
1063.2663
1060.8199
1069.0798
1062.0067
1064.9835
1069.4299
1072.8055
1066.0681
1064.8463
1083.7556
1074.467
1066.0665
1056.8154
1047.8474
1056.7877
1048.7426
1046.3509
1042.653
1039.0517
1043.1628
1038.046
1041.905
1037.4108
1033.1863
1026.3076
1031.7948
1038.4856
1047.8533
1056.8239
1050.7242
1047.4773
1043.5608
1024.3789
1028.681
1034.333
1039.2539
1043.7512
1041.0243
1045.2586
1041.0806
1036.3136
1030.6165
1035.0987
1038.7672
1032.9975
1028.6953
1021.8216
1027.4084
1023.0183
1018.7994
1020.8254
1108.9634
1109.3889
1061.9266
1058.2833
1055.8355
1040.798
1033.9297
1043.6717
1041.8632
1050.3069
1049.2118
1038.5414
1029.6782
1031.1671
1040.0115
1042.7929
1052.1479
1054.7263
1046.1987
1037.5032
1046.3264
1050.3491
1057.3994
1061.6587
102.93236
147.8031
196.23646
245.35799
534.14086
539.01331
250.17497
200.00284
150.60559
104.61964
105.12172
152.83318
203.44374
254.38661
544.11325
548.3721
256.37905
205.05023
153.97575
105.56927
105.83519
154.67468
206.10421
257.70972
552.28743
556.04826
258.9407
207.06967
155.31797
106.10744
106.3825
156.02761
208.1563
260.33562
559.78626
563.54853
261.88944
209.36248
156.8129
106.67416
106.97387
157.65132
210.65558
263.5597
567.35985
571.23352
265.30021
212.00119
158.52217
107.27881
107.58776
159.41746
213.38568
267.09223
575.17676
579.19623
268.92317
214.80015
160.33173
107.89992
108.21652
161.26604
216.24553
270.79431
583.29566
587.47847
272.70235
217.71975
162.21908
108.53735
108.86382
163.19319
219.22593
274.65162
591.74729
596.10544
276.6408
220.76344
164.18791
109.19574
109.53429
165.20513
222.33494
278.67375
600.55569
605.10161
280.74979
223.94031
166.24482
109.87934
110.23195
167.30888
225.58224
282.87276
609.74605
614.49273
285.04332
227.26182
168.39818
110.59231
110.96143
169.51444
228.98138
287.26477
619.34519
624.30794
289.53805
230.74193
170.65817
111.33909
111.72581
171.83064
232.54512
291.86574
629.38538
634.5818
294.24871
234.39171
173.03216
112.1217
112.52766
174.26431
236.28397
296.69016
639.90152
645.34696
299.19036
238.22253
175.5275
112.94344
113.37004
176.82388
240.21021
301.75306
650.92269
656.63469
304.38141
242.2498
178.15542
113.8082
114.25924
179.52384
244.34436
307.07985
662.48993
668.49684
309.85197
246.49685
180.93052
114.72255
115.19668
182.37861
248.70908
312.69856
674.66105
680.98548
315.62002
250.97977
183.86645
115.68447
692.30434
289.46149
229.55059
169.13405
110.13945
109.69968
167.80758
227.50552
286.8088
685.89404
679.64431
284.2196
225.50866
166.51278
109.27105
108.84797
165.24806
223.55641
281.68796
673.55081
667.60923
279.21971
221.6541
164.01618
108.43405
108.03179
162.81577
219.79932
276.81291
661.81285
656.15581
274.46683
217.99212
161.64737
107.64006
107.25798
160.50934
216.22989
272.17839
650.63253
645.23809
269.94749
214.51297
159.40156
106.8854
106.52296
158.32393
212.84056
267.7732
639.9682
634.81787
265.65478
211.21268
157.27635
106.17038
105.82632
156.25483
209.62361
263.58598
629.78221
624.85733
261.56455
208.07154
155.25764
105.4899
105.16101
154.2833
206.55365
259.58729
620.03974
615.32584
257.65423
205.07033
153.33173
104.83904
104.52387
152.40161
203.61901
255.76225
610.71182
606.19651
253.91252
202.2006
151.49286
104.2149
103.91177
150.60346
200.81107
252.09987
601.77372
597.44174
250.32578
199.45135
149.73311
103.61368
103.32044
148.88067
198.1185
248.58642
593.19595
589.03467
246.883
196.81334
148.04561
103.0311
102.74552
147.22758
195.53417
245.21351
584.95463
580.95181
243.58211
194.28388
146.42723
102.46294
102.18369
145.64796
193.06722
241.99586
577.02161
573.15751
240.4786
191.90114
144.89893
101.90931
101.64256
144.19862
190.8151
239.07047
569.35028
565.58569
237.82188
189.84556
143.56854
101.39056
101.14691
143.00856
188.99504
236.73523
561.82222
557.95118
235.59909
188.09439
142.4041
100.89863
100.56178
141.48026
186.71465
233.86316
553.80675
549.11353
230.76866
184.26989
139.81405
100.06464
99.797658
137.00247
180.21357
225.79849
543.83323
535.18349
213.14424
169.26101
129.57079
97.647703
99.536756
137.11508
180.35429
225.95333
544.29657
549.47962
230.98792
184.44549
139.90245
99.912299
100.49106
141.60227
186.90539
234.08818
554.10458
558.18546
235.78065
188.24807
142.50279
100.85659
101.12447
143.09274
189.12449
236.88918
562.02512
565.76482
237.94817
189.95097
143.6373
101.3776
101.63607
144.2575
190.90597
239.18071
569.51427
573.30657
240.5735
191.97894
144.94958
101.90681
102.18421
145.69342
193.13727
242.08189
577.16018
581.08228
243.65908
194.34638
146.46804
102.46544
102.74961
147.26545
195.59242
245.28569
585.07818
589.1532
246.9492
196.86669
148.08055
103.03624
103.32655
148.91401
198.16967
248.65026
593.31075
597.55413
250.38597
199.49964
149.76488
103.62054
103.9195
150.63501
200.85916
252.16003
601.88582
606.3089
253.97115
202.24767
151.52408
104.22338
104.53323
152.43382
203.66765
255.82301
610.82614
615.44069
257.71481
205.11894
153.36419
104.84897
105.1716
154.31681
206.60389
259.65006
620.15572
624.97465
261.62845
208.12269
155.29186
105.50099
105.8379
156.29061
209.67729
263.653
629.90087
634.93831
265.72421
211.26857
157.31384
106.18228
106.53505
158.36283
212.89842
267.84496
640.09106
645.36328
270.0175
214.569
159.43916
106.89696
107.26871
160.54445
216.28296
272.24557
650.76021
656.2867
274.52998
218.04138
161.67962
107.64988
108.04094
162.84567
219.8457
276.87317
661.94756
667.74815
279.2774
221.69814
164.04435
108.44287
108.85717
165.27634
223.60075
281.746
673.69395
679.79164
284.28092
225.55639
166.54368
109.2814
109.71108
167.84224
227.55845
286.87578
686.04721
692.46621
289.53472
229.60862
169.17218
110.15196
110.61151
170.54456
231.72214
292.27483
699.06111
115.1886
182.32025
248.64553
312.67469
682.53677
676.07488
309.72741
246.35652
180.82118
114.69294
114.21313
179.36299
244.12909
306.85978
669.78251
663.65249
304.06943
241.96298
177.94724
113.748
113.29216
176.56683
239.84962
301.34688
657.67843
651.8558
298.69394
237.79115
175.22283
112.84616
112.41268
173.91414
235.78578
296.10904
646.17684
640.63533
293.59094
233.83336
172.64142
111.99103
111.58045
171.4028
231.93083
291.13588
635.22557
629.94379
288.74314
230.0778
170.19758
111.18064
110.79133
169.0232
228.27019
286.40795
624.78305
619.73967
284.12931
226.50726
167.87884
110.41197
110.04175
166.76204
224.78506
281.90266
614.80908
609.98748
279.72685
223.10284
165.67179
109.67964
109.32544
164.6065
221.45779
277.59871
605.27141
600.65757
275.51839
219.85024
163.56588
108.9786
108.63895
162.54862
218.27737
273.48247
596.14209
591.72202
271.49127
216.73958
161.55433
108.3058
107.97903
160.58198
215.23439
269.54184
587.39454
583.15654
267.6346
213.76226
159.63108
107.65784
107.34201
158.70055
212.32052
265.76629
579.00543
574.93798
263.93785
210.90985
157.78989
107.03051
106.72305
156.89864
209.52856
262.14732
570.95176
567.04283
260.39971
208.18027
156.02796
106.4188
106.11807
155.18191
206.87056
258.70289
563.2064
559.43738
257.08366
205.61883
154.37123
105.82225
105.53412
153.61746
204.45877
255.58677
555.728
552.0674
254.26846
203.43218
152.94612
105.25997
104.98898
152.35547
202.54018
253.12931
548.41829
544.66931
251.92027
201.58195
151.7114
104.69071
104.24615
150.73537
200.12503
250.07993
540.68349
536.25662
246.8246
197.56497
149.02415
103.5648
102.81592
146.75379
193.94977
242.14872
531.44496
535.14939
246.19553
197.11705
148.42292
102.08498
104.54503
150.55272
199.8177
249.97836
539.13987
544.30372
254.53177
203.56288
152.89052
105.06548
105.56218
154.03161
205.12854
256.47388
548.51145
552.42811
257.80791
206.18575
154.72758
105.8324
106.11067
155.3669
207.14311
259.02974
556.18425
559.9204
260.41787
208.22395
156.07218
106.38723
106.68113
156.85631
209.42777
261.96919
563.68024
567.48911
263.63479
210.71695
157.69195
106.98133
107.28749
158.56227
212.06143
265.37428
571.36043
575.30248
267.16291
213.44305
159.45544
107.59642
107.90936
160.36947
214.857
268.99364
579.32095
583.42039
270.86234
216.30034
161.3023
108.2259
108.54745
162.25564
217.77492
272.77119
587.60408
591.87408
274.71913
219.28007
163.22898
108.87388
109.20659
164.22455
220.81868
276.70997
596.23403
600.6865
278.74321
222.39065
165.24216
109.54539
109.89137
166.2837
223.99846
280.82232
605.23504
609.88234
282.94719
225.64224
167.34912
110.24432
110.60516
168.4399
227.32393
285.12056
614.63202
619.487
287.34319
229.04437
169.55652
110.9739
111.35144
170.70063
230.80578
289.61815
624.45114
629.52812
291.94652
232.60932
171.87305
111.73789
112.13412
173.07519
234.45701
294.33119
634.72238
640.03869
296.77403
236.35059
174.30817
112.54028
112.95716
175.57372
238.2925
299.27836
645.48268
651.06016
301.84626
240.28476
176.87334
113.385
113.82444
178.2082
242.32925
304.48072
656.77744
662.64073
307.18301
244.42709
179.57881
114.27553
114.73872
180.98707
246.58107
309.957
668.65673
674.83131
312.80667
248.79511
182.4361
115.21477
115.70552
183.92812
251.07131
315.73437
681.16853
687.67491
318.7427
253.41081
185.46262
116.21061
115.18434
182.3077
248.62689
312.65145
682.49632
676.03866
309.70599
246.33934
180.80958
114.68883
114.20934
179.35213
244.11299
306.83967
669.74954
663.62167
304.04976
241.94718
177.93651
113.7445
113.2888
176.55613
239.83383
301.32725
657.64882
651.82643
298.67446
237.77553
175.21232
112.84304
112.40977
173.90379
235.77025
296.08954
646.14682
640.6046
293.57119
233.81773
172.63113
111.98835
111.57793
171.3925
231.9151
291.11604
635.19437
629.91155
288.7228
230.06165
170.18699
111.1781
110.7888
169.01259
228.25411
286.38791
624.75082
619.70801
284.10957
226.49129
167.86816
110.40937
110.03908
166.7516
224.76958
281.88367
614.77828
609.95803
279.7089
223.08814
165.66182
109.67699
109.32291
164.5972
221.44409
277.58196
605.24316
600.6312
275.50288
219.83755
163.5573
108.97626
108.63684
162.54072
218.26564
273.46806
596.11688
591.69804
271.47774
216.72856
161.54692
108.30387
107.9773
160.57506
215.22399
269.52899
587.37118
583.1347
267.62243
213.75235
159.62449
107.65631
107.34063
158.69412
212.31077
265.75427
578.98395
574.91683
263.92604
210.90018
157.78349
107.02926
106.72192
156.89222
209.51881
262.13538
570.93125
567.02217
260.38737
208.17013
156.02131
106.41777
106.11711
155.17502
206.86005
258.69014
563.18545
559.41582
257.07024
205.60779
154.36409
105.82136
105.5334
153.61058
204.44794
255.57352
555.70746
552.04706
254.25457
203.42102
152.93919
105.25939
104.98862
152.3496
202.53024
253.1163
548.40009
544.65705
251.90745
201.57268
151.70693
104.69168
104.24036
150.72329
200.10992
250.06141
540.68126
536.26838
246.79322
197.54574
149.02684
103.57043
102.71593
146.69714
193.93638
242.14075
531.63369
545.01212
226.77311
181.23783
137.71011
98.990161
99.897734
139.91835
184.31907
230.81184
549.41763
554.07329
234.08789
186.90584
141.59096
100.45949
100.85822
142.49683
188.22738
235.7536
558.13408
561.96457
236.855
189.09617
143.07421
101.12175
101.37741
143.61943
189.92206
237.91254
565.69916
569.44627
239.14353
190.87608
144.23824
101.63467
101.90556
144.93201
191.95127
240.53872
573.23901
577.09261
242.04675
193.1095
145.67551
102.18183
102.46298
146.45153
194.32058
243.62646
581.01483
585.01139
245.25268
195.56643
147.24864
102.74628
103.03289
148.0647
196.84202
246.91792
589.08661
593.24379
248.61823
198.14461
148.89782
103.3225
103.61646
149.74929
199.47539
250.35507
597.48617
601.81672
252.12803
200.83417
150.61882
103.91472
104.21841
151.50784
202.22259
253.93921
606.23836
610.75389
255.78918
203.64117
152.41656
104.5275
104.84292
153.3462
205.09139
257.67993
615.36631
620.07891
259.61219
206.574
154.29712
105.16464
105.49357
155.2707
208.09066
261.58828
624.89537
629.81871
263.60909
209.64238
156.26744
105.82967
106.17368
157.28915
211.23152
265.67801
634.85321
640.00302
267.79608
212.85934
158.33671
106.52584
106.88764
159.41225
214.52904
269.96785
645.27271
650.66737
272.19563
216.24306
160.51763
107.25939
107.6411
161.65387
218.00303
274.48196
656.1918
661.85066
276.82717
219.80956
162.82168
108.03273
108.43546
164.02222
221.6643
279.23396
667.64888
673.5917
281.70318
223.56781
165.255
108.84994
109.27376
166.52117
225.52185
284.2366
679.68598
685.93692
286.82935
227.52228
167.81867
109.70299
110.14372
169.14693
229.5694
289.48433
692.35003
698.9372
292.22127
231.68053
170.5178
110.60317
687.49345
318.64069
253.33007
185.40919
116.19431
115.68786
183.8743
250.99044
315.63229
680.99409
674.66656
312.71088
248.71978
182.38628
115.19954
114.72492
180.9367
246.50555
309.86205
668.49921
662.49072
307.08817
244.35148
179.52869
114.26089
113.8089
178.15775
242.2534
304.38574
656.63463
650.92306
301.75375
240.21071
176.82378
113.36949
112.94204
175.52551
238.22029
299.18804
645.34985
639.90906
296.6874
236.28135
174.26194
112.52571
112.11993
173.03067
234.39018
294.24746
634.59531
629.40331
291.86799
232.54672
171.83135
111.72452
111.33893
170.66138
230.74655
289.54364
624.32835
619.36607
287.27412
228.98951
169.52014
110.96224
110.59403
168.40538
227.27163
285.05455
614.51329
609.7656
282.88524
225.59312
167.31657
110.23372
109.88115
166.25224
223.95071
280.76192
605.12007
600.57305
278.68551
222.34499
165.21196
109.53559
109.19694
164.19461
220.77312
276.65227
596.122
591.76353
274.66319
219.23578
163.1997
108.86445
108.53797
162.22612
217.73001
272.71446
587.4951
583.31324
270.80723
216.25661
161.27333
108.21656
107.9
160.34024
214.81259
268.93773
579.21565
575.19847
267.10858
213.39976
159.42673
107.58716
107.27813
158.53336
212.01752
265.31915
571.25841
567.38911
263.5823
210.67493
157.66404
106.97218
106.67199
156.82872
209.38568
261.91627
563.58421
559.8285
260.36884
208.18501
156.04664
106.3785
106.10249
155.34454
207.10787
258.98432
556.09826
552.34998
257.77121
206.15781
154.71057
105.82517
105.555
154.02788
205.11985
256.45897
548.45083
544.26035
254.51532
203.5459
152.88201
105.05467
104.50711
150.62254
199.91808
250.08363
539.15237
535.15152
246.26883
197.20219
148.51976
102.15747
102.8181
147.97664
196.51713
245.67797
534.60215
539.33437
250.33239
200.13571
150.68319
104.5288
105.06886
152.89431
203.54495
254.51013
544.36511
548.57666
256.49427
205.144
154.03415
105.54298
105.82365
154.73332
206.1949
257.81952
552.46551
556.20628
259.0434
207.15444
155.3732
106.10416
106.38397
156.07922
208.23424
260.4294
559.93192
563.68521
261.97707
209.43495
156.86093
106.67846
106.97982
157.69591
210.7225
263.64064
567.48971
571.35764
265.37722
212.06443
158.56425
107.28589
107.59546
159.45682
213.44469
267.16415
575.29741
579.31425
268.9932
214.85714
160.36955
107.90823
108.2252
161.3022
216.29987
270.86117
583.41258
587.59562
272.76902
217.77355
162.25474
108.54657
108.8735
163.22822
219.27871
274.71711
591.86555
596.22576
276.7075
220.81696
164.2234
109.20606
109.54523
165.2412
222.38905
278.7411
600.67891
605.22836
280.82014
223.99671
166.28245
109.89105
110.24437
167.34813
225.64076
282.94552
609.87738
614.62951
285.1196
227.32301
168.43917
110.60523
110.97429
169.55623
229.04408
287.34328
619.48812
624.45728
289.6186
230.80565
170.70026
111.35159
111.7378
171.87201
232.60825
291.9462
629.54005
634.73978
294.32884
234.45412
173.07276
112.13334
112.539
174.30389
236.34494
296.76851
640.06065
645.50747
299.2685
238.28346
175.56711
112.95489
113.38192
176.86437
240.27212
301.83194
651.08565
656.80212
304.46338
242.31464
178.19817
113.82082
114.27245
179.56905
244.41261
307.16582
662.66415
668.67714
309.94069
246.56738
180.97748
114.73605
115.21067
182.42686
248.78128
312.78953
674.84647
681.17602
315.71301
251.05299
183.91472
115.69893
116.20585
185.45082
253.39473
318.72425
687.67751
1179.2555
1179.3724
1179.2521
1179.365
1163.997
1164.2726
1164.7378
1204.7482
1203.9301
1164.2749
1163.0312
1201.8403
1203.9278
1204.3404
1192.4423
1173.835
1153.49
1148.4213
1168.358
1163.5393
1171.5332
1151.2144
1143.0777
1137.1685
1148.914
1162.2495
1203.1293
1189.1787
1190.8982
1212.2344
1213.8133
1209.6662
1188.5946
1184.5972
1206.147
1202.0093
1210.8128
1209.6445
1187.8805
1167.9157
1169.5113
1158.1875
1154.662
1133.3289
1147.2262
1128.5254
1109.3385
1111.3111
1097.1
1116.7662
1112.641
1092.7558
1073.8692
1066.6851
1073.0616
1091.8771
1091.8382
1090.4333
1108.9543
1109.3777
1094.5775
1093.1486
531.44452
241.64773
193.53578
146.44029
103.17665
103.73141
148.82684
197.24885
246.43747
536.17727
540.59329
249.81013
199.89285
150.57863
104.31632
104.73385
151.60785
201.42924
251.74868
544.59779
548.37462
253.02228
202.44189
152.28685
105.01505
105.27833
152.89987
203.36602
254.19852
552.04633
555.72792
255.54077
204.41368
153.58502
105.54659
105.83188
154.34912
205.58817
257.05379
559.45005
563.23055
258.68476
206.8504
155.16658
106.1252
106.42506
156.01872
208.16842
260.39086
567.07572
570.99132
262.14511
209.52275
156.89323
106.72811
107.03536
157.78812
210.9089
263.94116
574.98252
579.05315
265.77328
212.32307
158.70098
107.3462
107.6621
159.63377
213.76779
267.64504
583.20696
587.44697
269.55441
215.24204
160.58594
107.98292
108.30991
161.55976
216.74907
271.50605
591.77556
596.19605
273.49856
218.28829
162.5549
108.64289
108.98295
163.57338
219.86261
275.53616
600.7115
605.32513
277.61832
221.47209
164.61529
109.32997
109.68494
165.6825
223.11946
279.74907
610.04039
614.86071
281.92803
224.80486
166.77512
110.04771
110.41912
167.89478
226.53062
284.15865
619.78981
624.8317
286.44163
228.29767
169.04214
110.79923
111.18882
170.21868
230.10814
288.78004
629.99036
635.27056
291.17503
231.96322
171.42521
111.58799
111.99751
172.66332
233.86521
293.62988
640.67758
646.21656
296.14583
235.81546
173.93396
112.41758
112.84898
175.23881
237.81652
298.72662
651.89346
657.71423
301.37365
239.86982
176.5789
113.29184
113.74689
177.95576
241.97769
304.09021
663.6852
669.81274
306.88025
244.1436
179.37187
114.2148
114.69649
180.82881
246.36986
309.74693
676.1039
682.56609
312.69503
248.66042
182.32927
115.19248
114.68432
180.79329
246.314
309.67369
675.96177
669.67639
306.81363
244.09334
179.34014
114.20614
113.74125
177.92586
241.92954
304.02626
663.55238
657.58316
301.30367
239.81562
176.54422
113.28485
112.8384
175.19798
237.75434
298.64798
651.76436
646.08859
296.06024
235.74646
173.88733
112.40425
111.98198
172.61173
233.78984
293.53739
640.55005
635.14223
291.0788
231.88425
171.37076
111.57079
111.17073
170.16315
230.02742
288.68169
629.86001
624.70007
286.34698
228.22038
168.9894
110.78175
110.40292
167.84657
226.45885
284.06988
619.65819
614.72929
281.84684
224.73957
166.73146
110.03275
109.67084
165.64134
223.05786
279.67222
609.90865
605.1928
277.54662
221.41469
164.57689
109.31699
108.97076
163.53663
219.80709
275.46633
600.57858
596.0621
273.43146
218.23498
162.51959
108.63137
108.29864
161.5244
216.69535
271.43824
591.64227
587.31298
269.48726
215.18869
160.55062
107.97186
107.65099
159.59742
213.71267
267.57563
583.07224
578.91759
265.70403
212.26777
158.66423
107.33514
107.02409
157.74995
210.85122
263.8689
574.84528
570.85409
262.07317
209.46493
156.85467
106.71694
106.4138
155.97856
208.10792
260.31559
566.93754
563.09078
258.60861
206.78883
155.1254
106.11417
105.821
154.3058
205.52322
256.97362
559.30842
555.58298
255.45974
204.34755
153.54058
105.53684
105.27038
152.85332
203.29679
254.11376
551.89707
548.21376
252.94051
202.37418
152.24104
105.01342
104.74205
151.56558
201.37049
251.68096
544.4143
540.33801
249.76925
199.84468
150.53733
104.35044
103.80377
148.8179
197.26969
246.50609
535.79914
530.68364
241.76735
193.51505
146.34936
103.31535
101.94052
142.06405
186.85975
233.69329
523.91654
531.05704
252.09164
201.80936
152.22449
107.99032
102.31574
148.753
197.52776
246.60917
535.60572
539.14167
249.90826
199.79429
150.58806
104.68747
105.12839
152.85339
203.48568
254.42934
544.2711
548.45295
256.37339
205.04558
153.98593
105.60968
105.86688
154.69249
206.1255
257.73719
552.37567
556.13825
258.96912
207.09014
155.33413
106.13492
106.40505
156.04548
208.18133
260.36976
559.88304
563.6498
261.92686
209.38996
156.83174
106.69331
106.99042
157.67147
210.68562
263.60008
567.46483
571.34136
265.34388
212.03381
158.54373
107.29359
107.6012
159.4401
213.42017
267.13799
575.28892
579.31225
268.97147
214.83666
160.3555
107.91247
108.22848
161.29091
216.2838
270.84472
583.41488
587.60078
272.75522
217.76002
162.24518
108.54899
108.87535
163.22054
219.26815
274.70685
591.87327
596.23569
276.69874
220.8079
164.21677
109.2074
109.54628
165.23589
222.38213
278.73488
600.6898
605.2392
280.8146
223.99069
166.27787
109.89182
110.24499
167.34457
225.63628
282.94179
609.88725
614.63708
285.11586
227.31881
168.43588
110.6056
110.97463
169.55359
229.04078
287.34046
619.49215
624.45596
289.61546
230.80253
170.69795
111.35195
111.73843
171.8706
232.60642
291.94438
629.5326
634.72634
294.32793
234.45344
173.07221
112.13411
112.5398
174.30434
236.34588
296.76953
640.04176
645.48414
299.27093
238.28563
175.56847
112.95587
113.38317
176.86646
240.27547
301.8359
651.05877
656.77104
304.46659
242.31749
178.19979
113.82201
114.27349
179.57082
244.41486
307.16719
662.62702
668.63309
309.94062
246.5706
180.98202
114.73833
115.21819
182.43704
248.78819
312.7907
674.79572
681.12165
315.72051
251.07116
183.94145
115.71448
116.22472
185.49755
253.41504
318.72378
687.61867
114.68473
180.79131
246.31378
309.67607
675.9878
669.69669
306.80238
244.08121
179.32961
114.20195
113.73299
177.91016
241.91021
304.00635
663.56846
657.59817
301.2892
239.80219
176.53376
113.27799
112.83592
175.19596
237.75149
298.6448
651.77919
646.10384
296.07017
235.75576
173.89501
112.40614
111.9878
172.62856
233.81098
293.56036
640.5663
635.16034
291.11397
231.91625
171.39556
111.58039
111.18412
170.19254
230.06629
288.72528
629.87988
624.71847
286.38462
228.25271
169.01295
110.79421
110.41073
167.86103
226.47959
284.09531
619.67463
614.74432
281.85922
224.7485
166.73664
110.0351
109.67128
165.64382
223.06306
279.68009
609.92366
605.20729
277.55292
221.41863
164.57852
109.31758
108.97165
163.53866
219.81108
275.47234
600.59341
596.07699
273.43741
218.23929
162.52222
108.63263
108.30039
161.5275
216.69996
271.44414
591.65516
587.32426
269.49235
215.19283
160.55362
107.97398
107.65339
159.60001
213.71607
267.5798
583.08151
578.92488
265.70652
212.26985
158.66599
107.33773
107.027
157.75101
210.85223
263.87023
574.85094
570.8574
262.07242
209.46428
156.85466
106.72018
106.41753
155.97768
208.10593
260.31337
566.93841
563.0898
258.60466
206.78545
155.1237
106.11858
105.82646
154.30359
205.51874
256.96832
559.30477
555.57827
255.45296
204.34195
153.53792
105.54377
105.27939
152.85073
203.29043
254.10576
551.88995
548.20586
252.92994
202.3658
152.23746
105.02471
104.7572
151.56364
201.36272
251.67063
544.41035
540.3464
249.76752
199.84499
150.54305
104.37121
103.8312
148.84177
197.29481
246.53427
535.84192
530.80095
241.83812
193.56487
146.38618
103.33417
102.00517
142.48879
187.4519
234.36021
524.27179
535.84744
215.42402
171.28093
131.08355
98.578356
105.42496
146.28505
192.84789
240.9107
528.86897
530.31918
241.89162
193.80084
147.12871
105.40744
103.00695
146.40014
193.52902
241.66613
531.58166
536.19981
246.46857
197.27661
148.85388
103.70504
104.28669
150.57328
199.90066
249.82578
540.61988
544.62951
251.76732
201.44358
151.61407
104.71535
105.00069
152.29054
202.45189
253.03604
548.39841
552.06301
254.20875
203.37413
152.90352
105.26785
105.53949
153.58936
204.42178
255.55082
555.7387
559.45748
257.0608
205.59402
154.35209
105.82623
106.12139
155.16997
206.85621
258.69164
563.23563
567.07938
260.39562
208.17259
156.02099
106.42177
106.72594
156.89595
209.52718
262.15032
570.99397
574.9842
263.94431
210.91179
157.78976
107.03327
107.34486
158.70284
212.32608
265.77683
579.05411
583.20717
267.64688
213.76951
159.6347
107.66069
107.98197
160.58692
215.24367
269.55636
587.44623
591.7747
271.50632
216.74943
161.55982
108.30875
108.6421
162.55493
218.28857
273.49902
596.19461
600.70999
275.53554
219.86212
163.57284
108.98204
109.32942
164.61477
221.47156
277.61792
605.32375
610.03977
279.74766
223.11826
165.6815
109.68424
110.04725
166.77412
224.8036
281.92685
614.86077
619.79091
284.15689
226.52901
167.89352
110.41855
110.79893
169.04106
228.29623
286.44027
624.83405
629.99445
288.77883
230.10695
170.21776
111.18851
111.58798
171.42476
231.96267
291.17471
635.27669
640.68602
293.6304
233.86552
172.66342
111.99756
112.41786
173.93487
235.81697
296.14797
646.22788
651.90751
298.72964
237.81885
175.24022
112.84911
113.29198
176.5806
239.87287
301.37793
657.73101
663.70448
304.0957
241.98164
177.95789
113.74688
114.21499
179.37461
244.14846
306.88698
669.83415
676.1268
309.75635
246.37705
180.83317
114.6971
115.19334
182.33403
248.66803
312.70493
682.58998
699.09368
292.30159
231.74359
170.55889
110.61798
110.15817
169.18276
229.62558
289.5575
692.49574
686.07076
286.88761
227.56544
167.84516
109.71117
109.27665
166.54463
225.56035
284.28838
679.81227
673.71355
281.75802
223.60939
165.28045
108.85361
108.44202
164.05083
221.70982
279.29314
667.76728
661.96685
276.89173
219.86028
162.85473
108.0415
107.65142
161.68973
218.05691
274.54942
656.30658
650.78185
272.26568
216.29941
160.55534
107.27117
106.90032
159.44955
214.58449
270.03656
645.38598
640.11454
267.86175
212.91207
158.37195
106.53838
106.18512
157.32099
211.27933
265.73785
634.96278
629.92634
263.66461
209.68635
156.29637
105.84003
105.50289
155.29638
208.13002
261.63839
625.00092
620.18288
259.65935
206.6107
154.32074
105.17319
104.85074
153.3679
205.12521
257.72363
615.46837
610.85322
255.83157
203.67377
152.43722
104.53483
104.22527
151.5273
202.25322
253.97914
606.33704
601.91347
252.16753
200.86436
150.63781
103.92138
103.62288
149.76726
199.50384
250.39235
597.58116
593.3359
248.6548
198.17245
148.91526
103.32888
103.03915
148.0807
196.86743
246.9514
589.17484
585.09601
245.28469
195.59055
147.2636
102.75266
102.46947
146.46433
194.34119
243.65416
581.09476
577.16633
242.07225
193.12807
145.6867
102.18893
101.91363
144.9399
191.96434
240.55722
573.30626
569.50384
239.15633
190.88445
144.24277
101.64472
101.39168
143.61881
189.92128
237.9133
565.742
561.98855
236.83962
189.08269
143.06465
101.14144
100.8901
142.46742
188.17933
235.69564
558.13409
554.0713
233.97051
186.80384
141.5159
100.48871
100.00753
139.81487
184.14215
230.60186
549.39514
545.00632
226.52959
181.01509
137.5226
99.061717
536.80145
213.26319
169.45337
129.53129
97.132772
99.760751
136.97034
180.05061
225.56075
544.52478
549.48099
230.69828
184.22545
139.78329
100.03591
100.56625
141.49459
186.72382
233.86355
554.01261
558.09742
235.62893
188.11988
142.42249
100.90809
101.15936
143.03611
189.03635
236.78767
561.95874
565.72005
237.8771
189.88761
143.59587
101.40237
101.6535
144.22612
190.85859
239.12831
569.48846
573.29503
240.53491
191.94346
144.92578
101.91952
102.19358
145.67537
193.11073
242.05359
577.15963
581.09015
243.63926
194.32705
146.4546
102.47256
102.75514
147.25555
195.57842
245.27186
585.09331
589.17359
246.94115
196.85751
148.07369
103.0407
103.33023
148.90937
198.16365
248.64552
593.33495
597.5812
250.38533
199.49701
149.76239
103.62372
103.92228
150.634
200.85863
252.16156
601.91539
606.33972
253.97529
202.2494
151.52459
104.22592
104.53562
152.43551
203.67099
255.82876
610.85764
615.472
257.7228
205.12418
153.36716
104.85132
105.17387
154.32076
206.61037
259.65922
620.18616
625.00391
261.63979
208.13104
155.29712
105.50331
105.84037
156.2972
209.68726
263.66598
629.92858
634.96346
265.7396
211.28071
157.32205
106.18518
106.53837
158.37275
212.91282
267.86282
640.1131
645.38187
270.03697
214.58488
159.45009
106.90002
107.27058
160.55471
216.29787
272.26379
650.77454
656.2962
274.54526
218.05364
161.68787
107.65025
108.03966
162.85063
219.85374
276.88373
661.9519
667.74735
279.28152
221.70037
164.04454
108.43922
108.84977
165.27129
223.5959
281.74184
673.68843
679.78149
284.26813
225.54351
166.53311
109.27181
109.70583
167.83098
227.54474
286.86292
686.03368
692.45205
289.53029
229.60286
169.16692
110.15243
110.61182
170.54172
231.71864
292.27132
699.04397
116.20419
185.44234