/*--------------------------------*- C++ -*----------------------------------*\
  =========                 |
  \\      /  F ield         | OpenFOAM: The Open Source CFD Toolbox
   \\    /   O peration     | Website:  https://openfoam.org
    \\  /    A nd           | Version:  7
     \\/     M anipulation  |
\*---------------------------------------------------------------------------*/
FoamFile
{
    version     2.0;
    format      ascii;
    class       volScalarField;
    location    "90";
    object      rho;
}
// * * * * * * * * * * * * * * * * * * * * * * * * * * * * * * * * * * * * * //

dimensions      [1 -3 0 0 0 0 0];

internalField   nonuniform List<scalar> 
25201
(
1.1739127
1.1739036
1.1739128
1.173904
1.1738789
1.173887
1.1738965
1.1739017
1.1738904
1.1738789
1.1738903
1.1738867
1.1738806
1.1738984
1.1739109
1.1738742
1.1738731
1.1738788
1.1738509
1.1738877
1.1738683
1.173885
1.1738696
1.1738998
1.1738869
1.1738865
1.1738831
1.1738732
1.1738792
1.1738879
1.1738871
1.1738696
1.1739329
1.1739187
1.1739025
1.1739136
1.1738841
1.1738989
1.1739277
1.1739393
1.173898
1.1739057
1.1738979
1.1739419
1.1739465
1.1739527
1.1739145
1.1738898
1.1738796
1.1738812
1.1738831
1.1738793
1.1738831
1.1738823
1.173879
1.1738776
1.1738751
1.1738809
1.1738826
1.1738953
1.1738756
1.1738893
1.1738873
1.1738867
1.1738723
1.1738718
1.1738706
1.1738757
1.1738884
1.1738938
1.1739047
1.1738875
1.173883
1.1738842
1.1738891
1.1739118
1.1738965
1.173899
1.1739069
1.1738924
1.1738925
1.1738753
1.173907
1.1739026
1.1739185
1.1738918
1.1739116
1.1739005
1.1738856
1.1738989
1.1738899
1.1739311
1.173922
1.1739235
1.1739174
1.1738764
1.1738645
1.17391
1.1739548
1.173932
1.173935
1.1739586
1.1739601
1.1739421
1.1739337
1.1739639
1.1739805
1.1739347
1.1739469
1.1739458
1.1739406
1.1739415
1.173995
1.1739938
1.1740467
1.1740095
1.1740039
1.1740442
1.1740365
1.1739911
1.1739496
1.17401
1.1739892
1.1740241
1.1740646
1.1740027
1.1739732
1.1739465
1.1738982
1.1739247
1.1739362
1.1739439
1.1739538
1.1739465
1.1739364
1.1739223
1.1739107
1.1739059
1.1738888
1.1738743
1.1738774
1.1738872
1.1738954
1.1738751
1.1738797
1.1738824
1.1738824
1.1738788
1.1738829
1.1738717
1.1738723
1.1738866
1.1738887
1.173876
1.1738708
1.1738699
1.1738793
1.1738784
1.1738814
1.1738839
1.1739054
1.1738868
1.1738913
1.1738911
1.1738736
1.1738905
1.1739054
1.1738989
1.1739395
1.1739213
1.1739185
1.1739025
1.173903
1.1738963
1.1738948
1.1739052
1.173903
1.1739103
1.1739523
1.1739361
1.1739565
1.1739196
1.1739374
1.1739777
1.1739566
1.1740028
1.1739658
1.1739934
1.1740124
1.1740465
1.1740026
1.173967
1.1739519
1.1739095
1.1739308
1.173889
1.1738828
1.1740355
1.1740086
1.1739475
1.1739399
1.1739335
1.1739631
1.1739208
1.1739212
1.1739582
1.1739896
1.1739799
1.1739341
1.1739891
1.174024
1.1740649
1.1740027
1.1740216
1.1740193
1.1739743
1.173904
1.1739128
1.1738791
1.1738739
1.1738794
1.1738981
1.1739201
1.1738883
1.1738888
1.1738983
1.1739059
1.1739466
1.1739422
1.1739338
1.1739397
1.1739284
1.1738995
1.1738848
1.1738713
1.1739042
1.1739145
1.1739016
1.1738858
1.1738739
1.1731661
1.1735002
1.1739151
1.1741725
1.1745285
1.1750562
1.1750362
1.1749525
1.1748096
1.1746964
1.1746607
1.1746821
1.1747057
1.1747192
1.1747262
1.1746627
1.1746585
1.1746568
1.1746539
1.1746525
1.174499
1.1745001
1.1745005
1.1745009
1.1745101
1.1744152
1.1744083
1.1744083
1.1744082
1.174408
1.1743179
1.1743183
1.1743185
1.1743187
1.1743251
1.1742549
1.1742496
1.1742494
1.1742493
1.174249
1.1741896
1.1741899
1.1741901
1.1741902
1.1741945
1.1741444
1.174141
1.1741409
1.1741408
1.1741406
1.1740988
1.174099
1.1740991
1.1740991
1.1741018
1.1740655
1.1740633
1.1740633
1.1740633
1.1740632
1.1740324
1.1740327
1.1740327
1.1740327
1.1740343
1.1740073
1.1740058
1.1740058
1.1740057
1.1740056
1.1739822
1.1739824
1.1739825
1.1739825
1.1739834
1.1739623
1.1739615
1.1739615
1.1739614
1.1739611
1.1739423
1.1739427
1.1739429
1.1739429
1.1739432
1.1739256
1.1739254
1.1739253
1.173925
1.1739244
1.1739084
1.1739091
1.1739095
1.1739096
1.1739093
1.1738938
1.1738942
1.1738941
1.1738936
1.1738928
1.1738777
1.1738787
1.1738794
1.1738795
1.1738788
1.1738643
1.173865
1.1738649
1.1738642
1.1738632
1.1738487
1.17385
1.1738506
1.1738507
1.1738498
1.1738345
1.1738353
1.173835
1.173834
1.1738323
1.1738168
1.1738187
1.1738199
1.1738202
1.1738191
1.1738034
1.1738044
1.1738041
1.1738029
1.1738008
1.1737841
1.1737864
1.1737877
1.1737879
1.1737868
1.173769
1.1737699
1.1737696
1.1737681
1.1737654
1.1737453
1.1737486
1.1737506
1.1737511
1.1737504
1.1737349
1.1737345
1.1737345
1.1737334
1.1737307
1.1737251
1.173725
1.1737222
1.1737198
1.1737193
1.1736901
1.1736887
1.173689
1.1736885
1.1736858
1.173693
1.1736913
1.1736941
1.1736977
1.1736985
1.1737374
1.1737338
1.1737268
1.1737221
1.1737214
1.1737367
1.1737361
1.1737375
1.173739
1.1737386
1.173739
1.1737437
1.1737475
1.1737492
1.1737498
1.1737686
1.1737689
1.1737673
1.1737637
1.1737594
1.1737776
1.1737817
1.173785
1.1737864
1.1737866
1.173803
1.1738031
1.1738017
1.1737986
1.1737948
1.1738107
1.1738144
1.1738174
1.1738188
1.1738187
1.1738343
1.1738347
1.1738337
1.1738315
1.1738287
1.1738465
1.1738483
1.1738495
1.17385
1.1738495
1.173864
1.1738646
1.1738644
1.1738638
1.1738626
1.1738767
1.1738779
1.1738786
1.1738788
1.1738783
1.1738935
1.1738937
1.1738936
1.173893
1.1738922
1.1739073
1.1739081
1.1739085
1.1739087
1.1739088
1.173925
1.1739245
1.1739245
1.1739242
1.1739237
1.1739406
1.1739411
1.1739414
1.1739414
1.1739422
1.1739612
1.17396
1.17396
1.1739599
1.1739597
1.17398
1.1739804
1.1739805
1.1739805
1.173982
1.1740056
1.1740035
1.1740035
1.1740035
1.1740034
1.1740291
1.1740294
1.1740295
1.1740296
1.174032
1.1740628
1.1740595
1.1740595
1.1740595
1.1740594
1.1740936
1.1740939
1.174094
1.1740941
1.1740982
1.17414
1.1741348
1.1741347
1.1741346
1.1741345
1.1741813
1.1741817
1.1741819
1.174182
1.1741885
1.1742473
1.1742391
1.174239
1.1742389
1.1742386
1.1743036
1.1743041
1.1743043
1.1743045
1.1743148
1.1744014
1.1743895
1.1743894
1.1743895
1.1743893
1.1744753
1.1744761
1.1744764
1.1744767
1.1744917
1.1746324
1.1746185
1.1746175
1.174616
1.1746148
1.1746672
1.1746779
1.1746907
1.1746982
1.1747094
1.1749742
1.174898
1.1748594
1.1747963
1.1747408
1.1746737
1.1747669
1.174835
1.1748682
1.1748142
1.1752635
1.1699762
1.1699809
1.1698868
1.1697697
1.1751147
1.1752009
1.1752675
1.1752988
1.1752145
1.1752166
1.1751503
1.175114
1.175054
1.1750004
1.1748442
1.1748528
1.1748645
1.1748706
1.1748708
1.1747413
1.1747354
1.1747352
1.1747343
1.1747335
1.1745575
1.1745579
1.174558
1.1745578
1.1745669
1.174456
1.1744485
1.1744487
1.1744488
1.1744488
1.1743476
1.1743479
1.1743479
1.1743478
1.1743546
1.1742778
1.1742722
1.1742723
1.1742722
1.1742721
1.1742067
1.1742069
1.174207
1.1742069
1.1742113
1.1741579
1.1741542
1.1741543
1.1741542
1.1741541
1.1741091
1.1741092
1.1741093
1.1741092
1.1741119
1.1740739
1.1740716
1.1740716
1.1740716
1.1740715
1.1740389
1.1740391
1.1740391
1.174039
1.1740407
1.1740127
1.1740113
1.1740113
1.1740113
1.1740112
1.1739866
1.1739868
1.1739869
1.1739868
1.1739877
1.173966
1.1739653
1.1739654
1.1739653
1.1739651
1.1739456
1.1739459
1.173946
1.1739459
1.1739462
1.1739285
1.1739284
1.1739284
1.1739283
1.173928
1.1739115
1.173912
1.1739121
1.1739121
1.1739118
1.1738964
1.1738968
1.1738968
1.1738965
1.1738959
1.1738809
1.1738817
1.173882
1.173882
1.1738814
1.173867
1.1738675
1.1738675
1.1738671
1.1738662
1.1738494
1.173851
1.1738521
1.1738524
1.1738517
1.1738358
1.1738364
1.1738354
1.1738331
1.1738303
1.1738117
1.1738155
1.1738187
1.1738202
1.1738197
1.1738038
1.1738041
1.1738025
1.173799
1.1737949
1.1737775
1.1737819
1.1737856
1.1737873
1.1737872
1.1737692
1.1737695
1.1737676
1.1737636
1.1737588
1.1737387
1.1737437
1.1737478
1.1737498
1.1737505
1.1737376
1.1737362
1.1737374
1.1737387
1.1737379
1.1737384
1.1737349
1.1737279
1.1737234
1.1737234
1.1736978
1.1736975
1.1737001
1.1737035
1.1737042
1.1736584
1.1736621
1.1736636
1.1736639
1.1736673
1.1736601
1.1736635
1.1736648
1.1736649
1.173667
1.1736981
1.1736977
1.1737
1.1737026
1.1737028
1.173726
1.1737258
1.1737227
1.1737204
1.1737216
1.1737385
1.1737379
1.1737393
1.1737407
1.1737398
1.1737426
1.1737468
1.1737498
1.173751
1.1737511
1.1737691
1.1737702
1.1737689
1.1737659
1.173762
1.1737803
1.1737839
1.1737867
1.1737878
1.1737868
1.1738035
1.1738048
1.1738037
1.173801
1.1737978
1.1738141
1.1738171
1.1738196
1.1738206
1.1738194
1.1738356
1.1738369
1.1738362
1.1738345
1.1738324
1.1738495
1.1738511
1.1738521
1.1738523
1.1738513
1.1738667
1.1738676
1.1738677
1.1738673
1.1738665
1.1738808
1.1738816
1.173882
1.1738819
1.1738812
1.1738963
1.1738968
1.1738969
1.1738967
1.1738961
1.1739113
1.1739119
1.1739121
1.173912
1.1739117
1.1739285
1.1739285
1.1739286
1.1739285
1.1739282
1.1739456
1.1739459
1.173946
1.173946
1.1739461
1.1739661
1.1739656
1.1739657
1.1739657
1.1739656
1.1739867
1.1739869
1.173987
1.1739869
1.1739877
1.1740129
1.1740116
1.1740117
1.1740117
1.1740116
1.1740391
1.1740393
1.1740393
1.1740393
1.1740408
1.1740743
1.1740722
1.1740722
1.1740722
1.1740722
1.1741096
1.1741098
1.1741098
1.1741098
1.1741123
1.1741588
1.1741553
1.1741554
1.1741553
1.1741553
1.174208
1.1742083
1.1742084
1.1742084
1.1742124
1.1742797
1.1742745
1.1742745
1.1742744
1.1742743
1.1743503
1.1743508
1.1743511
1.1743511
1.1743575
1.1744613
1.1744542
1.1744542
1.1744539
1.1744536
1.1745665
1.1745674
1.1745679
1.174568
1.1745768
1.1747629
1.1747581
1.174759
1.1747597
1.1747606
1.1749659
1.1749534
1.1749411
1.1749332
1.1749346
1.17539
1.1754319
1.1754801
1.1755589
1.1756292
1.1762947
1.176123
1.1759172
1.1757896
1.1756163
1.1743796
1.1739361
1.173634
1.1731397
1.1727356
1.1748954
1.1749987
1.1751373
1.175218
1.1751888
1.1747632
1.1747529
1.1747405
1.1747179
1.1746952
1.1746919
1.1746932
1.1746961
1.1746976
1.1747005
1.1745345
1.1745248
1.1745244
1.1745236
1.1745223
1.174427
1.1744273
1.1744276
1.1744277
1.1744342
1.1743393
1.1743327
1.1743325
1.1743322
1.1743317
1.1742605
1.1742609
1.174261
1.1742611
1.174266
1.1742031
1.174199
1.1741989
1.1741987
1.1741985
1.1741478
1.174148
1.1741481
1.1741481
1.1741513
1.1741074
1.1741047
1.1741047
1.1741047
1.1741046
1.1740679
1.174068
1.1740681
1.174068
1.17407
1.1740379
1.1740362
1.1740362
1.1740361
1.174036
1.1740091
1.1740092
1.1740092
1.1740092
1.1740103
1.1739859
1.173985
1.173985
1.173985
1.1739849
1.1739637
1.1739639
1.173964
1.1739639
1.1739644
1.1739451
1.1739447
1.1739448
1.1739447
1.1739445
1.1739271
1.1739275
1.1739276
1.1739275
1.1739275
1.1739111
1.1739113
1.1739114
1.1739113
1.1739109
1.1738956
1.1738962
1.1738963
1.1738962
1.1738957
1.1738808
1.1738814
1.1738815
1.1738813
1.1738807
1.1738662
1.173867
1.1738673
1.1738672
1.1738662
1.1738516
1.1738526
1.1738527
1.1738524
1.1738515
1.1738363
1.1738376
1.173838
1.1738379
1.1738366
1.1738213
1.1738224
1.1738225
1.1738218
1.1738204
1.1738038
1.1738057
1.1738065
1.1738065
1.1738054
1.1737887
1.1737896
1.1737894
1.1737884
1.1737862
1.173768
1.1737706
1.1737718
1.173772
1.1737714
1.1737531
1.173753
1.1737527
1.1737513
1.1737484
1.1737295
1.1737325
1.1737338
1.173734
1.1737346
1.1737152
1.1737144
1.1737142
1.1737129
1.1737099
1.1736871
1.1736905
1.173692
1.1736922
1.1736923
1.1736654
1.1736635
1.1736631
1.1736614
1.1736575
1.1736612
1.1736642
1.173665
1.1736647
1.1736668
1.1736983
1.1736979
1.1737005
1.1737038
1.1737045
1.1737275
1.1737269
1.1737233
1.1737206
1.1737219
1.1737385
1.1737379
1.1737395
1.1737412
1.1737406
1.1737423
1.1737466
1.1737495
1.1737507
1.1737508
1.1737686
1.1737696
1.1737682
1.173765
1.1737609
1.1737784
1.1737824
1.1737856
1.1737871
1.1737862
1.1738029
1.173804
1.1738026
1.1737995
1.1737958
1.1738118
1.1738154
1.1738184
1.1738198
1.1738187
1.1738349
1.1738361
1.1738351
1.1738329
1.1738303
1.1738478
1.1738497
1.1738511
1.1738516
1.1738507
1.1738662
1.173867
1.1738669
1.1738663
1.1738652
1.1738798
1.1738808
1.1738814
1.1738814
1.1738808
1.1738959
1.1738964
1.1738965
1.1738961
1.1738955
1.1739109
1.1739115
1.1739117
1.1739117
1.1739114
1.1739282
1.1739282
1.1739283
1.1739281
1.1739278
1.1739452
1.1739455
1.1739457
1.1739456
1.1739458
1.1739656
1.1739651
1.1739651
1.1739651
1.1739649
1.1739862
1.1739865
1.1739865
1.1739865
1.1739873
1.1740123
1.1740111
1.1740111
1.1740112
1.1740111
1.1740384
1.1740386
1.1740387
1.1740386
1.1740402
1.1740734
1.1740713
1.1740713
1.1740713
1.1740713
1.1741085
1.1741087
1.1741088
1.1741088
1.1741113
1.1741575
1.174154
1.1741541
1.1741541
1.174154
1.1742064
1.1742067
1.1742068
1.1742067
1.1742108
1.1742778
1.1742726
1.1742726
1.1742727
1.1742726
1.1743493
1.1743494
1.1743492
1.174349
1.1743555
1.1744589
1.174452
1.1744525
1.1744533
1.1744537
1.1745684
1.1745677
1.1745663
1.1745653
1.1745739
1.1747598
1.1747555
1.1747581
1.1747619
1.1747655
1.1749616
1.1749469
1.1749314
1.1749216
1.1749249
1.1753888
1.175427
1.1754775
1.1755605
1.1756362
1.1762869
1.1760857
1.1758479
1.1757046
1.1755667
1.1750606
1.1750923
1.1750693
1.1750218
1.1749722
1.1751648
1.1751959
1.1752398
1.1752652
1.1752687
1.1748513
1.1748514
1.174848
1.1748406
1.1748335
1.1747304
1.1747294
1.1747289
1.1747282
1.1747304
1.1745561
1.1745469
1.1745472
1.1745473
1.1745471
1.1744403
1.1744403
1.1744402
1.1744399
1.1744467
1.174348
1.1743409
1.1743409
1.1743408
1.1743406
1.1742661
1.1742663
1.1742664
1.1742663
1.1742715
1.1742072
1.1742026
1.1742026
1.1742025
1.1742023
1.1741505
1.1741506
1.1741507
1.1741506
1.174154
1.1741093
1.1741064
1.1741064
1.1741064
1.1741063
1.1740692
1.1740693
1.1740693
1.1740692
1.1740714
1.174039
1.1740371
1.1740372
1.1740372
1.1740371
1.1740096
1.1740097
1.1740098
1.1740097
1.1740109
1.1739865
1.1739854
1.1739855
1.1739854
1.1739853
1.1739639
1.1739642
1.1739642
1.1739642
1.1739647
1.1739453
1.1739448
1.1739449
1.1739447
1.1739444
1.1739267
1.1739272
1.1739274
1.1739274
1.1739274
1.173911
1.173911
1.173911
1.1739107
1.1739101
1.1738945
1.1738953
1.1738957
1.1738958
1.1738954
1.1738805
1.1738808
1.1738807
1.1738802
1.1738793
1.1738648
1.1738659
1.1738665
1.1738665
1.1738659
1.1738508
1.1738514
1.173851
1.1738498
1.1738481
1.1738292
1.1738321
1.1738345
1.1738355
1.1738348
1.1738189
1.1738194
1.1738179
1.1738147
1.173811
1.1737944
1.1737985
1.1738019
1.1738035
1.173803
1.1737865
1.1737867
1.1737851
1.1737816
1.1737773
1.1737586
1.1737633
1.1737672
1.1737689
1.1737685
1.1737501
1.1737493
1.1737475
1.1737435
1.1737387
1.1737383
1.1737389
1.1737375
1.1737362
1.1737373
1.1737232
1.1737223
1.1737268
1.1737338
1.1737375
1.1737029
1.1737023
1.1736987
1.173696
1.1736966
1.1736656
1.1736618
1.1736615
1.17366
1.1736562
1.1736632
1.1736603
1.1736598
1.1736579
1.1736537
1.1736871
1.1736901
1.1736909
1.1736907
1.1736923
1.1737202
1.1737191
1.1737213
1.1737239
1.1737241
1.1737294
1.1737325
1.1737337
1.1737338
1.1737351
1.1737504
1.1737509
1.1737503
1.1737483
1.1737449
1.1737651
1.173768
1.1737696
1.17377
1.1737688
1.1737865
1.1737878
1.1737875
1.1737862
1.1737838
1.1738008
1.173803
1.1738043
1.1738046
1.1738032
1.173819
1.1738204
1.1738201
1.1738189
1.173817
1.1738326
1.1738344
1.1738355
1.1738358
1.1738346
1.1738502
1.1738512
1.1738512
1.1738506
1.1738495
1.1738639
1.1738651
1.1738657
1.1738658
1.1738651
1.1738797
1.1738802
1.1738801
1.1738796
1.1738787
1.1738936
1.1738945
1.173895
1.1738951
1.1738947
1.1739103
1.1739104
1.1739104
1.1739101
1.1739095
1.1739259
1.1739264
1.1739266
1.1739266
1.1739268
1.1739444
1.173944
1.173944
1.1739439
1.1739436
1.1739626
1.173963
1.1739631
1.1739631
1.1739638
1.1739853
1.1739842
1.1739843
1.1739843
1.1739841
1.1740078
1.1740081
1.1740082
1.1740081
1.1740096
1.1740373
1.1740353
1.1740354
1.1740354
1.1740353
1.1740666
1.1740668
1.1740668
1.1740668
1.1740693
1.1741066
1.1741034
1.1741034
1.1741034
1.1741034
1.1741463
1.1741465
1.1741466
1.1741466
1.1741505
1.1742024
1.1741974
1.1741974
1.1741974
1.1741973
1.1742589
1.1742591
1.1742592
1.1742592
1.1742654
1.1743393
1.1743311
1.1743312
1.1743311
1.1743309
1.1744262
1.1744262
1.1744261
1.174426
1.1744348
1.1745374
1.1745249
1.1745249
1.1745248
1.1745241
1.1746949
1.1746952
1.1746968
1.1746975
1.1747046
1.1747801
1.174765
1.1747536
1.1747324
1.1747116
1.1749023
1.1750049
1.1751407
1.1752186
1.1751918
1.1744774
1.1740664
1.1737873
1.1733292
1.1729561
1.1733636
1.1737043
1.1741289
1.174391
1.1747526
1.175214
1.1751991
1.1751158
1.174973
1.1748596
1.1747506
1.1747718
1.1747962
1.1748096
1.1748207
1.1747282
1.1747211
1.1747195
1.1747162
1.1747144
1.1745418
1.1745429
1.1745435
1.1745437
1.1745553
1.1744487
1.1744404
1.1744405
1.1744404
1.1744404
1.1743416
1.174342
1.1743422
1.1743422
1.1743497
1.1742739
1.174268
1.1742681
1.174268
1.1742678
1.174204
1.1742042
1.1742043
1.1742042
1.1742089
1.1741558
1.1741521
1.1741521
1.1741521
1.174152
1.1741075
1.1741077
1.1741078
1.1741078
1.1741107
1.1740727
1.1740704
1.1740704
1.1740704
1.1740703
1.1740383
1.1740384
1.1740384
1.1740383
1.17404
1.1740119
1.1740105
1.1740105
1.1740104
1.1740103
1.1739862
1.1739864
1.1739864
1.1739863
1.1739872
1.1739655
1.1739648
1.1739649
1.1739649
1.1739647
1.1739454
1.1739456
1.1739457
1.1739456
1.1739459
1.1739281
1.173928
1.1739281
1.173928
1.1739277
1.1739113
1.1739118
1.1739119
1.1739119
1.1739116
1.1738961
1.1738965
1.1738966
1.1738964
1.1738958
1.1738808
1.1738816
1.1738819
1.1738818
1.1738811
1.1738666
1.1738672
1.1738673
1.173867
1.1738662
1.1738511
1.1738522
1.1738526
1.1738525
1.1738516
1.173836
1.1738369
1.1738367
1.1738357
1.1738341
1.1738177
1.1738197
1.173821
1.1738213
1.1738202
1.1738043
1.1738052
1.1738048
1.1738034
1.1738011
1.1737836
1.1737863
1.1737879
1.1737884
1.1737875
1.1737697
1.1737704
1.1737698
1.1737679
1.1737649
1.1737448
1.1737486
1.1737509
1.1737517
1.1737512
1.1737357
1.1737351
1.1737349
1.1737336
1.1737305
1.1737258
1.1737257
1.173723
1.1737208
1.1737205
1.173694
1.1736932
1.1736933
1.1736925
1.1736896
1.1736567
1.1736608
1.1736629
1.1736634
1.1736657
1.1739107
1.1738987
1.1739107
1.1738986
1.1738755
1.1738853
1.1738953
1.1738991
1.1738876
1.1738852
1.1738695
1.1738613
1.1738877
1.173872
1.1738515
1.1738572
1.1738683
1.1738656
1.1738471
1.1738452
1.1738496
1.1738658
1.1738617
1.1738608
1.1738635
1.1738695
1.1738618
1.1738352
1.1738425
1.1738293
1.173843
1.1738187
1.1738381
1.1738276
1.1738085
1.1737965
1.1738191
1.1738147
1.1738321
1.173843
1.1738453
1.1738413
1.1738397
1.1738611
1.1738634
1.173871
1.1738874
1.1738833
1.1738947
1.1738786
1.173881
1.1738998
1.1739136
1.173896
1.1738884
1.1738895
1.1738898
1.1738786
1.1739038
1.1739129
1.1738874
1.1738813
1.1751371
1.1752776
1.1754466
1.1757293
1.1759607
1.1753787
1.1752934
1.1751964
1.1751394
1.175111
1.1747398
1.1747258
1.1747358
1.1747534
1.1747702
1.1746276
1.1746257
1.1746237
1.1746225
1.1746315
1.1744838
1.1744707
1.1744702
1.1744697
1.1744688
1.1743824
1.174383
1.1743835
1.1743838
1.1743929
1.1743082
1.1742994
1.1742991
1.1742986
1.1742981
1.1742345
1.1742348
1.1742351
1.1742353
1.1742416
1.1741845
1.174179
1.1741788
1.1741786
1.1741784
1.174132
1.1741322
1.1741323
1.1741324
1.1741364
1.174096
1.1740925
1.1740924
1.1740923
1.1740921
1.1740581
1.1740582
1.1740582
1.1740583
1.1740608
1.1740309
1.1740286
1.1740286
1.1740286
1.1740285
1.1740027
1.1740028
1.1740029
1.1740028
1.1740044
1.1739814
1.17398
1.17398
1.17398
1.1739798
1.1739598
1.17396
1.17396
1.17396
1.1739607
1.1739422
1.1739416
1.1739417
1.1739416
1.1739414
1.1739249
1.1739251
1.1739252
1.1739251
1.1739252
1.1739094
1.1739094
1.1739095
1.1739095
1.1739092
1.1738947
1.173895
1.173895
1.1738948
1.1738944
1.17388
1.1738805
1.1738808
1.1738808
1.1738804
1.1738665
1.173867
1.173867
1.1738667
1.1738658
1.1738516
1.1738525
1.1738528
1.1738529
1.1738524
1.1738378
1.1738386
1.1738385
1.1738381
1.173837
1.173822
1.1738229
1.1738233
1.1738233
1.1738223
1.173806
1.1738074
1.1738076
1.1738073
1.1738064
1.1737898
1.1737902
1.1737903
1.1737898
1.1737879
1.1737693
1.1737717
1.1737726
1.1737727
1.1737724
1.173754
1.1737538
1.1737535
1.1737521
1.1737493
1.1737286
1.173732
1.1737338
1.1737343
1.1737346
1.1737144
1.1737141
1.1737135
1.1737114
1.1737078
1.1736853
1.1736893
1.1736916
1.1736922
1.173692
1.1736658
1.173664
1.1736634
1.1736612
1.173657
1.1736969
1.1736968
1.1736939
1.1736915
1.173692
1.1737185
1.1737188
1.1737214
1.1737247
1.1737254
1.173741
1.1737413
1.1737395
1.1737379
1.1737372
1.1737511
1.1737511
1.1737503
1.173748
1.1737445
1.1737631
1.1737665
1.1737688
1.1737697
1.1737692
1.1737871
1.1737874
1.1737868
1.1737848
1.173782
1.1737982
1.173801
1.173803
1.1738038
1.1738035
1.1738189
1.1738194
1.1738186
1.1738166
1.173814
1.1738299
1.1738322
1.173834
1.1738346
1.1738341
1.1738484
1.1738494
1.173849
1.1738477
1.173846
1.1738609
1.1738624
1.1738634
1.1738638
1.1738624
1.1738771
1.1738783
1.1738779
1.1738769
1.1738756
1.1738906
1.1738917
1.1738926
1.173893
1.1738925
1.1739078
1.1739077
1.1739075
1.1739068
1.1739059
1.1739218
1.1739226
1.1739231
1.1739233
1.1739236
1.1739409
1.1739402
1.1739402
1.1739398
1.1739394
1.1739578
1.1739582
1.1739585
1.1739585
1.1739594
1.17398
1.1739787
1.1739787
1.1739787
1.1739785
1.1740007
1.174001
1.1740011
1.1740011
1.1740028
1.1740289
1.1740267
1.1740267
1.1740267
1.1740266
1.1740552
1.1740554
1.1740556
1.1740557
1.1740584
1.1740935
1.1740899
1.1740899
1.1740898
1.1740897
1.1741287
1.1741289
1.1741291
1.1741292
1.1741334
1.1741809
1.1741754
1.1741753
1.1741752
1.1741751
1.1742293
1.1742296
1.1742298
1.17423
1.1742364
1.1743019
1.1742933
1.1742931
1.1742929
1.1742925
1.1743728
1.1743733
1.1743735
1.1743737
1.1743827
1.1744694
1.1744569
1.1744564
1.1744556
1.1744547
1.1745913
1.1745919
1.1745929
1.1745935
1.1746025
1.1746949
1.1746837
1.1746865
1.1746915
1.1746966
1.1751514
1.1750985
1.1750389
1.1750033
1.1749811
1.1749667
1.1751095
1.1752188
1.1753957
1.1755388
1.1720238
1.1719521
1.1727785
1.1739957
1.1746583
1.1790445
1.185807
1.1857989
1.1859222
1.1860321
1.172417
1.1728101
1.1732943
1.1735915
1.1740865
1.1750057
1.1750416
1.1749678
1.1748434
1.1747514
1.1745376
1.1745576
1.1745763
1.1745865
1.1746007
1.1745815
1.1745762
1.1745748
1.1745726
1.1745719
1.174424
1.1744256
1.1744266
1.1744273
1.1744389
1.174363
1.1743546
1.1743541
1.1743536
1.174353
1.1742734
1.174274
1.1742744
1.1742748
1.1742825
1.1742225
1.1742163
1.1742161
1.1742158
1.1742155
1.1741631
1.1741634
1.1741636
1.1741637
1.1741685
1.1741251
1.1741208
1.1741207
1.1741205
1.1741204
1.1740823
1.1740825
1.1740826
1.1740826
1.1740858
1.1740532
1.1740503
1.1740503
1.1740502
1.1740501
1.1740219
1.1740221
1.1740222
1.1740222
1.1740241
1.1739996
1.1739977
1.1739977
1.1739976
1.1739975
1.1739757
1.1739759
1.1739759
1.1739758
1.1739769
1.1739574
1.1739564
1.1739564
1.1739564
1.1739563
1.1739387
1.1739389
1.1739389
1.1739388
1.1739392
1.173923
1.1739226
1.1739227
1.1739228
1.1739226
1.1739077
1.173908
1.1739079
1.1739076
1.1739074
1.1738929
1.1738931
1.1738933
1.1738934
1.1738931
1.1738791
1.1738795
1.1738795
1.1738792
1.1738785
1.1738645
1.1738651
1.1738654
1.1738654
1.1738648
1.1738504
1.1738512
1.1738513
1.1738511
1.1738501
1.1738357
1.1738364
1.1738366
1.1738363
1.1738352
1.1738195
1.1738209
1.1738215
1.1738214
1.1738205
1.1738048
1.1738053
1.1738053
1.1738045
1.1738027
1.1737855
1.1737877
1.1737887
1.1737888
1.1737883
1.173771
1.1737712
1.1737709
1.1737697
1.1737671
1.173748
1.173751
1.1737524
1.1737528
1.1737527
1.1737335
1.1737332
1.1737328
1.1737311
1.1737279
1.1737074
1.1737109
1.1737127
1.1737131
1.1737131
1.17369
1.1736902
1.1736898
1.1736879
1.1736842
1.1736557
1.1736596
1.1736614
1.1736619
1.1736637
1.1736822
1.1736854
1.1736865
1.1736865
1.173688
1.1737138
1.1737137
1.1737137
1.1737126
1.1737097
1.173731
1.1737336
1.1737344
1.1737343
1.1737347
1.1737533
1.1737534
1.1737538
1.1737536
1.1737518
1.1737726
1.1737738
1.1737734
1.1737727
1.1737721
1.1737897
1.1737904
1.1737913
1.173792
1.1737913
1.1738083
1.1738089
1.173808
1.1738071
1.173806
1.1738216
1.1738229
1.173824
1.1738252
1.1738253
1.1738392
1.1738394
1.1738385
1.1738376
1.1738361
1.1738462
1.173847
1.1738454
1.1738421
1.1738387
1.1738481
1.1738523
1.1738568
1.1738592
1.1738583
1.1738741
1.1738744
1.1738724
1.1738686
1.1738651
1.1738918
1.1738923
1.1738926
1.1738926
1.1738924
1.1739078
1.1739075
1.1739077
1.1739078
1.1739074
1.1739223
1.1739227
1.1739229
1.1739228
1.1739231
1.17394
1.1739394
1.1739395
1.1739395
1.1739393
1.1739569
1.1739572
1.1739573
1.1739572
1.1739581
1.1739784
1.1739771
1.1739771
1.1739771
1.1739769
1.1739985
1.1739987
1.1739988
1.1739989
1.1740005
1.1740263
1.1740241
1.174024
1.174024
1.1740239
1.174052
1.1740522
1.1740523
1.1740523
1.1740551
1.1740897
1.1740859
1.1740858
1.1740857
1.1740856
1.1741233
1.1741236
1.1741237
1.1741239
1.1741281
1.1741744
1.1741688
1.1741686
1.1741684
1.1741682
1.1742209
1.1742212
1.1742213
1.1742214
1.1742278
1.1742913
1.1742828
1.1742826
1.1742825
1.1742823
1.1743601
1.1743602
1.17436
1.17436
1.1743687
1.1744522
1.1744402
1.1744402
1.1744404
1.1744404
1.1745742
1.1745732
1.1745724
1.1745718
1.1745798
1.1746659
1.1746564
1.1746612
1.1746695
1.1746775
1.1751228
1.1750663
1.1750023
1.174964
1.1749369
1.1749349
1.175071
1.1751865
1.1753761
1.1755301
1.1719305
1.1718337
1.1729047
1.1739972
1.1745879
1.1750243
1.1713807
1.170704
1.1707488
1.1706307
1.1805836
1.1808693
1.1796587
1.1783407
1.1775583
1.1778108
1.1822656
1.1831578
1.1829956
1.1829652
1.1759091
1.1756871
1.1754198
1.175262
1.1751517
1.1751605
1.1751793
1.1752325
1.175323
1.1754036
1.1748004
1.1747837
1.1747654
1.1747547
1.1747668
1.1746581
1.1746489
1.1746517
1.1746562
1.1746604
1.1744948
1.1744939
1.1744924
1.1744915
1.1745032
1.1744085
1.1743995
1.1743998
1.1744005
1.1744009
1.1743114
1.1743116
1.1743115
1.1743114
1.1743194
1.1742507
1.1742442
1.1742442
1.1742441
1.174244
1.1741856
1.1741859
1.1741859
1.174186
1.1741911
1.174142
1.1741378
1.1741377
1.1741376
1.1741375
1.1740965
1.1740967
1.1740967
1.1740967
1.1740999
1.1740643
1.1740616
1.1740616
1.1740616
1.1740615
1.1740311
1.1740313
1.1740313
1.1740313
1.1740333
1.1740067
1.174005
1.174005
1.174005
1.1740049
1.1739818
1.173982
1.173982
1.1739819
1.173983
1.1739621
1.1739613
1.1739613
1.1739613
1.1739612
1.1739427
1.1739429
1.173943
1.1739429
1.1739433
1.1739261
1.1739259
1.173926
1.1739259
1.1739256
1.1739099
1.1739102
1.1739103
1.1739102
1.17391
1.1738949
1.1738952
1.1738953
1.1738952
1.1738948
1.1738803
1.1738809
1.1738811
1.1738809
1.1738803
1.1738659
1.1738666
1.1738668
1.1738666
1.1738659
1.1738514
1.1738523
1.1738526
1.1738525
1.1738515
1.1738368
1.1738378
1.1738379
1.1738374
1.1738363
1.1738207
1.1738222
1.1738227
1.1738227
1.1738217
1.173806
1.1738067
1.1738067
1.173806
1.1738042
1.1737871
1.1737892
1.1737901
1.1737901
1.1737896
1.1737723
1.1737724
1.1737722
1.1737711
1.1737686
1.1737496
1.1737524
1.1737537
1.1737539
1.1737541
1.173735
1.1737346
1.1737343
1.1737328
1.1737298
1.1737095
1.1737129
1.1737144
1.1737148
1.173715
1.1736927
1.1736929
1.1736927
1.173691
1.1736876
1.173659
1.1736627
1.1736644
1.1736647
1.1736664
1.1736669
1.1736635
1.173663
1.1736611
1.1736571
1.1736865
1.1736902
1.173692
1.1736924
1.1736933
1.1737161
1.1737149
1.1737145
1.1737129
1.1737096
1.1737294
1.1737327
1.1737342
1.1737346
1.1737358
1.1737543
1.1737536
1.1737533
1.1737519
1.173749
1.1737679
1.1737706
1.1737718
1.173772
1.1737723
1.1737895
1.1737896
1.1737895
1.1737886
1.1737864
1.1738037
1.1738056
1.1738064
1.1738064
1.173806
1.1738218
1.1738224
1.1738225
1.173822
1.1738206
1.173836
1.1738373
1.1738378
1.1738377
1.1738369
1.1738517
1.1738525
1.1738526
1.1738523
1.1738515
1.1738658
1.1738667
1.1738669
1.1738668
1.1738662
1.1738807
1.1738811
1.1738813
1.1738811
1.1738806
1.173895
1.1738955
1.1738957
1.1738956
1.1738954
1.1739108
1.1739107
1.1739108
1.1739108
1.1739105
1.1739261
1.1739265
1.1739267
1.1739266
1.1739269
1.1739444
1.1739438
1.1739439
1.1739439
1.1739437
1.1739623
1.1739626
1.1739626
1.1739626
1.1739635
1.1739849
1.1739835
1.1739836
1.1739836
1.1739835
1.1740068
1.174007
1.1740071
1.1740071
1.1740088
1.1740363
1.1740339
1.1740339
1.174034
1.1740339
1.1740644
1.1740646
1.1740647
1.1740647
1.1740677
1.1741046
1.1741007
1.1741007
1.1741006
1.1741005
1.1741422
1.1741425
1.1741426
1.1741427
1.1741475
1.1741985
1.1741923
1.1741922
1.1741921
1.1741919
1.1742514
1.1742518
1.174252
1.1742521
1.1742596
1.1743314
1.1743213
1.1743211
1.1743209
1.1743205
1.1744113
1.1744117
1.1744119
1.1744121
1.174423
1.1745212
1.1745059
1.1745056
1.1745054
1.1745046
1.174669
1.1746688
1.1746688
1.1746689
1.1746799
1.1747652
1.1747499
1.1747461
1.1747393
1.1747318
1.1750494
1.1750771
1.1751174
1.1751422
1.1751705
1.1748064
1.1747268
1.1746912
1.1746306
1.1745633
1.1751536
1.169758
1.1697467
1.1696387
1.1695149
1.1749214
1.174948
1.1749489
1.1749432
1.174839
1.1749582
1.1748884
1.1748654
1.1748286
1.174795
1.1746638
1.1746667
1.1746709
1.1746733
1.1746803
1.1746039
1.1745939
1.1745944
1.1745954
1.1745962
1.1744532
1.1744534
1.1744532
1.1744531
1.1744647
1.1743801
1.1743709
1.1743708
1.1743708
1.1743707
1.1742884
1.1742888
1.174289
1.1742891
1.1742973
1.1742339
1.1742273
1.1742271
1.174227
1.1742268
1.1741721
1.1741724
1.1741725
1.1741726
1.1741779
1.1741319
1.1741275
1.1741274
1.1741273
1.1741271
1.1740882
1.1740884
1.1740884
1.1740885
1.1740917
1.1740579
1.1740551
1.174055
1.174055
1.1740549
1.1740258
1.174026
1.174026
1.174026
1.1740281
1.1740025
1.1740008
1.1740008
1.1740007
1.1740007
1.1739783
1.1739785
1.1739785
1.1739784
1.1739796
1.1739595
1.1739586
1.1739586
1.1739586
1.1739585
1.1739405
1.1739407
1.1739407
1.1739406
1.173941
1.1739244
1.1739241
1.1739242
1.1739242
1.173924
1.1739086
1.1739089
1.1739089
1.1739088
1.1739086
1.1738938
1.1738941
1.1738943
1.1738943
1.1738939
1.1738797
1.1738802
1.1738802
1.17388
1.1738794
1.1738653
1.1738659
1.1738661
1.173866
1.1738654
1.1738511
1.1738519
1.173852
1.1738518
1.173851
1.1738365
1.1738371
1.1738373
1.1738371
1.173836
1.1738204
1.1738218
1.1738222
1.1738221
1.1738215
1.1738059
1.1738061
1.1738061
1.1738055
1.1738038
1.1737864
1.1737885
1.1737894
1.1737895
1.1737894
1.1737722
1.1737717
1.1737715
1.1737704
1.1737678
1.1737485
1.1737515
1.1737529
1.1737532
1.1737539
1.1737347
1.1737337
1.1737332
1.1737315
1.1737282
1.1737077
1.1737113
1.1737132
1.1737137
1.1737144
1.1736921
1.1736916
1.173691
1.173689
1.1736852
1.1736563
1.1736605
1.1736625
1.1736631
1.1736661