/*--------------------------------*- C++ -*----------------------------------*\
  =========                 |
  \\      /  F ield         | OpenFOAM: The Open Source CFD Toolbox
   \\    /   O peration     | Website:  https://openfoam.org
    \\  /    A nd           | Version:  7
     \\/     M anipulation  |
\*---------------------------------------------------------------------------*/
FoamFile
{
    version     2.0;
    format      ascii;
    class       volScalarField;
    location    "230";
    object      p;
}
// * * * * * * * * * * * * * * * * * * * * * * * * * * * * * * * * * * * * * //

dimensions      [1 -1 -2 0 0 0 0];

internalField   nonuniform List<scalar> 
24789
(
101300.03
101300.03
101300.03
101300.02
101299.89
101298.56
101298.72
101298.73
101298.73
101298.73
101297.36
101297.36
101297.36
101297.35
101297.18
101295.73
101295.91
101295.92
101295.92
101295.92
101294.39
101294.39
101294.39
101294.38
101294.19
101292.56
101292.75
101292.76
101292.76
101292.76
101291.03
101291.03
101291.02
101291.01
101290.81
101288.94
101289.14
101289.15
101289.16
101289.15
101287.14
101287.14
101287.13
101287.12
101286.92
101284.74
101284.92
101284.94
101284.95
101284.95
101282.55
101282.55
101282.54
101282.52
101282.35
101279.73
101279.87
101279.89
101279.9
101279.9
101276.96
101276.96
101276.95
101276.94
101276.83
101273.6
101273.64
101273.66
101273.67
101273.67
101269.96
101269.96
101269.95
101269.94
101269.98
101265.89
101265.74
101265.75
101265.76
101265.76
101260.98
101260.99
101260.98
101260.97
101261.24
101255.94
101255.53
101255.52
101255.53
101255.52
101249.26
101249.28
101249.28
101249.3
101249.86
101242.87
101242.15
101242.11
101242.09
101242.06
101233.73
101233.78
101233.81
101233.88
101234.77
101225.35
101224.27
101224.18
101224.11
101224.05
101212.72
101212.81
101212.91
101213.05
101214.33
101201.36
101199.85
101199.66
101199.52
101199.39
101183.44
101183.61
101183.81
101184.07
101185.84
101167.05
101164.93
101164.59
101164.31
101164.1
101141.06
101141.33
101141.7
101142.15
101144.66
101116.95
101114.31
101113.74
101113.25
101112.88
101073.73
101074.21
101074.85
101075.56
101077.88
101036.2
101032.8
101031.78
101030.87
101030.3
101013.14
101013.73
101015.29
101017.25
101025.18
100921.19
100914.86
100913.05
100912.25
100911.13
100317.31
100340.47
100356.46
100375.43
100550.07
100870.96
100819.21
100809.15
100799.61
100785.94
100965.49
100979.68
100985.65
100993.21
101022.57
101183.2
101142.34
101132.55
101122.26
101105.27
101472.5
101499.53
101521.43
101540.1
101547.83
101121.95
100931.06
100910.18
100893.81
100866.77
101013.6
101018.91
101019.31
101019.51
101031.27
100790.18
100566.87
100539.57
100513.47
100479.42
100492.03
100500.42
100504.33
100512.22
100613.7
100927.49
100920.17
100918.97
100918.33
100917.85
101011.68
101012.4
101013.74
101015.39
101023.07
101036.06
101033.8
101032.94
101032.17
101031.65
101074.9
101075.3
101075.85
101076.47
101078.4
101117.85
101115.3
101114.79
101114.38
101114.07
101142.13
101142.35
101142.66
101143.04
101145.61
101167.85
101165.6
101165.31
101165.08
101164.91
101184.03
101184.16
101184.32
101184.54
101186.47
101201.84
101200.2
101200.03
101199.91
101199.81
101213.04
101213.12
101213.2
101213.32
101214.71
101225.63
101224.46
101224.38
101224.32
101224.27
101233.87
101233.91
101233.94
101234
101234.97
101243.01
101242.21
101242.17
101242.16
101242.13
101249.3
101249.31
101249.32
101249.34
101249.96
101256
101255.55
101255.54
101255.54
101255.53
101260.98
101260.98
101260.97
101260.97
101261.28
101265.91
101265.74
101265.74
101265.76
101265.75
101269.95
101269.95
101269.94
101269.93
101269.99
101273.6
101273.64
101273.65
101273.66
101273.66
101276.96
101276.96
101276.95
101276.94
101276.83
101279.72
101279.88
101279.89
101279.9
101279.9
101282.55
101282.55
101282.54
101282.53
101282.34
101284.72
101284.93
101284.95
101284.95
101284.95
101287.15
101287.15
101287.14
101287.13
101286.91
101288.93
101289.15
101289.16
101289.17
101289.17
101291.04
101291.04
101291.03
101291.02
101290.8
101292.54
101292.76
101292.77
101292.78
101292.78
101294.4
101294.4
101294.4
101294.39
101294.18
101295.72
101295.93
101295.93
101295.94
101295.93
101297.37
101297.38
101297.37
101297.37
101297.17
101298.56
101298.75
101298.75
101298.76
101298.75
101300.09
101300.09
101300.08
101300.08
101299.89
101298.6
101298.75
101298.76
101298.76
101298.76
101297.41
101297.41
101297.41
101297.4
101297.2
101295.74
101295.95
101295.96
101295.96
101295.96
101294.44
101294.44
101294.44
101294.43
101294.21
101292.57
101292.8
101292.81
101292.81
101292.81
101291.08
101291.08
101291.07
101291.06
101290.83
101288.96
101289.19
101289.2
101289.21
101289.21
101287.19
101287.19
101287.18
101287.17
101286.94
101284.76
101284.98
101284.99
101285
101285
101282.6
101282.6
101282.59
101282.58
101282.37
101279.75
101279.93
101279.94
101279.95
101279.95
101277.01
101277.01
101277
101276.98
101276.86
101273.64
101273.69
101273.7
101273.71
101273.71
101270
101270.01
101269.99
101269.98
101270.02
101265.94
101265.79
101265.8
101265.81
101265.81
101261.04
101261.05
101261.04
101261.04
101261.31
101256.04
101255.61
101255.61
101255.61
101255.6
101249.37
101249.39
101249.39
101249.41
101249.99
101243.04
101242.29
101242.25
101242.24
101242.22
101233.95
101233.98
101234.01
101234.06
101235
101225.64
101224.51
101224.43
101224.38
101224.33
101213.08
101213.15
101213.22
101213.33
101214.7
101201.81
101200.18
101200.03
101199.92
101199.83
101184.03
101184.16
101184.31
101184.51
101186.44
101167.83
101165.57
101165.29
101165.08
101164.92
101142.05
101142.26
101142.55
101142.91
101145.49
101117.99
101115.36
101114.88
101114.49
101114.21
101075.87
101076.24
101076.76
101077.35
101079.33
101033.44
101031.82
101031.04
101030.34
101029.89
101005.3
101005.91
101007.18
101008.75
101016.27
100951.2
100944.65
100943.1
100942.14
100941.47
100563.66
100570.24
100571.52
100576.12
100633.64
100603.08
100198.67
100155.16
100115.72
100065.62
101665.52
101648.07
101632.3
101611.93
101386.76
101074.68
100932.76
100914.84
100902.26
100877.32
101424.39
101456.51
101479.53
101499.84
101496.58
101210.31
101258.88
101263.36
101267.22
101264.45
101541.72
101529.71
101517.16
101500.29
101350.84
100590.59
100257.9
100214.06
100171.91
100121.1
100499.47
100509.36
100512.42
100519.07
100594.73
100933.68
100926.68
100925.06
100924.37
100923.36
100999.99
101000.55
101001.76
101003.3
101009.7
101030.06
101027.99
101027.18
101026.43
101025.93
101073.48
101073.91
101074.48
101075.11
101077.18
101116.2
101113.84
101113.33
101112.9
101112.57
101140.85
101141.1
101141.42
101141.81
101144.03
101166.75
101164.85
101164.55
101164.31
101164.12
101183.48
101183.63
101183.81
101184.04
101185.65
101201.23
101199.86
101199.69
101199.56
101199.45
101212.8
101212.88
101212.98
101213.11
101214.27
101225.34
101224.36
101224.26
101224.2
101224.14
101233.82
101233.86
101233.9
101233.96
101234.78
101242.89
101242.22
101242.18
101242.16
101242.12
101249.31
101249.34
101249.34
101249.36
101249.89
101255.97
101255.58
101255.57
101255.57
101255.56
101261.02
101261.03
101261.02
101261.02
101261.28
101265.93
101265.78
101265.79
101265.8
101265.8
101269.99
101270
101269.98
101269.97
101270.02
101273.65
101273.68
101273.69
101273.71
101273.7
101277
101277
101276.99
101276.97
101276.88
101279.78
101279.91
101279.93
101279.94
101279.94
101282.58
101282.58
101282.57
101282.56
101282.39
101284.78
101284.96
101284.98
101284.98
101284.98
101287.17
101287.17
101287.17
101287.15
101286.96
101288.98
101289.17
101289.18
101289.19
101289.19
101291.06
101291.06
101291.05
101291.04
101290.85
101292.59
101292.78
101292.79
101292.79
101292.79
101294.42
101294.42
101294.41
101294.41
101294.22
101295.75
101295.93
101295.94
101295.94
101295.94
101297.37
101297.38
101297.38
101297.37
101297.21
101298.6
101298.73
101298.73
101298.73
101298.73
101298.72
101298.72
101298.72
101298.71
101298.57
101297.19
101297.36
101297.37
101297.37
101297.37
101295.93
101295.93
101295.93
101295.92
101295.73
101294.2
101294.4
101294.41
101294.41
101294.41
101292.79
101292.79
101292.78
101292.77
101292.57
101290.84
101291.04
101291.05
101291.06
101291.06
101289.19
101289.2
101289.19
101289.18
101288.97
101286.95
101287.15
101287.16
101287.17
101287.17
101284.99
101284.99
101284.98
101284.97
101284.77
101282.39
101282.57
101282.58
101282.59
101282.59
101279.94
101279.94
101279.93
101279.92
101279.77
101276.88
101276.99
101277
101277.01
101277.01
101273.72
101273.72
101273.71
101273.7
101273.65
101270.03
101270
101270.01
101270.02
101270.02
101265.83
101265.83
101265.82
101265.81
101265.94
101261.29
101261.04
101261.04
101261.05
101261.05
101255.6
101255.61
101255.61
101255.61
101255.99
101249.92
101249.39
101249.37
101249.37
101249.35
101242.15
101242.19
101242.2
101242.24
101242.93
101234.84
101233.97
101233.91
101233.88
101233.83
101224.14
101224.2
101224.26
101224.36
101225.41
101214.4
101213.13
101213
101212.91
101212.82
101199.46
101199.57
101199.71
101199.89
101201.41
101185.87
101184.04
101183.8
101183.61
101183.46
101164.06
101164.25
101164.5
101164.82
101167.05
101144.56
101141.88
101141.47
101141.14
101140.89
101112.69
101113.02
101113.45
101113.98
101116.84
101077.93
101075.36
101074.71
101074.14
101073.7
101028.59
101029.05
101029.86
101030.78
101034.6
101020.51
101011.22
101009.5
101008.22
101007.85
100925
100925.17
100924.62
100924.98
100924.74
100559.48
100414.41
100398.92
100387.3
100369.13
100525.73
100554.58
100575.81
100598.9
100779.86
101219.16
101322.69
101327.8
101330.64
101328.98
100962.56
100981.64
100990.64
101001.08
101088.26
101574.21
101561.78
101541.77
101518.51
101489
101847.82
101995.23
102015.59
102030
102033.92
102124.92
102118.06
102110.6
102091.33
101797.7
101632
101663.6
101655.96
101647.24
101625.14
101513.84
101522.04
101525.47
101526.33
101465.82
101293.79
101375.39
101383.71
101389.07
101394.35
101173.21
101183.8
101192.83
101197.96
101199.6
100643.21
100428.8
100400.62
100375.62
100337.62
100500.73
100510.36
100514.86
100523.38
100607.49
100933.28
100928.44
100926.83
100925.72
100924.54
101004.15
101004.94
101006.28
101007.91
101012.74
101031.7
101030.34
101029.44
101028.6
101028.03
101074.29
101074.76
101075.38
101076.05
101077.65
101116.5
101114.37
101113.83
101113.36
101113
101141.07
101141.34
101141.69
101142.11
101144.22
101166.8
101164.94
101164.62
101164.36
101164.16
101183.46
101183.62
101183.81
101184.05
101185.67
101201.24
101199.85
101199.66
101199.52
101199.4
101212.77
101212.86
101212.96
101213.09
101214.28
101225.33
101224.32
101224.22
101224.16
101224.09
101233.77
101233.81
101233.85
101233.92
101234.77
101242.87
101242.19
101242.15
101242.13
101242.09
101249.29
101249.31
101249.32
101249.34
101249.88
101255.96
101255.57
101255.56
101255.56
101255.55
101261
101261.01
101261
101261
101261.27
101265.92
101265.77
101265.77
101265.78
101265.78
101269.99
101269.99
101269.98
101269.97
101270.02
101273.64
101273.68
101273.69
101273.7
101273.7
101276.99
101276.99
101276.98
101276.97
101276.88
101279.77
101279.91
101279.92
101279.93
101279.93
101282.58
101282.58
101282.57
101282.56
101282.39
101284.78
101284.96
101284.97
101284.97
101284.97
101287.17
101287.17
101287.16
101287.15
101286.96
101288.98
101289.17
101289.18
101289.19
101289.19
101291.05
101291.06
101291.05
101291.04
101290.85
101292.59
101292.78
101292.79
101292.79
101292.79
101294.42
101294.42
101294.42
101294.41
101294.23
101295.76
101295.94
101295.95
101295.95
101295.95
101297.39
101297.4
101297.39
101297.39
101297.22
101298.61
101298.75
101298.75
101298.75
101298.75
101298.74
101298.74
101298.74
101298.73
101298.57
101297.19
101297.39
101297.39
101297.4
101297.39
101295.95
101295.95
101295.95
101295.94
101295.73
101294.2
101294.41
101294.42
101294.43
101294.42
101292.8
101292.8
101292.79
101292.79
101292.56
101290.82
101291.05
101291.06
101291.06
101291.06
101289.19
101289.19
101289.18
101289.17
101288.94
101286.92
101287.15
101287.16
101287.17
101287.17
101284.97
101284.98
101284.97
101284.96
101284.74
101282.35
101282.55
101282.57
101282.57
101282.57
101279.92
101279.92
101279.92
101279.9
101279.74
101276.84
101276.96
101276.97
101276.98
101276.98
101273.69
101273.69
101273.68
101273.66
101273.62
101270
101269.96
101269.97
101269.98
101269.98
101265.78
101265.78
101265.77
101265.76
101265.92
101261.3
101261
101261
101261.01
101261
101255.56
101255.57
101255.57
101255.57
101256.03
101249.99
101249.37
101249.35
101249.35
101249.33
101242.17
101242.2
101242.21
101242.25
101243.04
101235.01
101234.03
101233.97
101233.94
101233.9
101224.31
101224.36
101224.41
101224.5
101225.67
101214.75
101213.36
101213.24
101213.15
101213.08
101199.86
101199.96
101200.08
101200.25
101201.89
101186.53
101184.61
101184.38
101184.21
101184.08
101164.99
101165.17
101165.4
101165.71
101167.94
101145.71
101143.23
101142.82
101142.5
101142.26
101114.44
101114.76
101115.21
101115.74
101118.1
101079.01
101077.6
101076.94
101076.34
101075.91
101031.63
101032.17
101033.01
101033.92
101034.98
101019.71
101013.61
101011.8
101010.34
101009.6
100932.49
100933.01
100933.43
100935.05
100937.67
100629.14
100533.12
100525.1
100519.79
100510.04
100416.06
100448.31
100471.64
100498.56
100739.62
101090.56
101113.02
101111.62
101110.34
101101.2
100845.86
100876.8
100904.89
100932.28
101155.66
101599.96
101956.35
101997.25
102032.69
102067.75
101058.69
101081.49
101098.97
101113.79
101197.87
100961.98
100887.86
100875.27
100865.86
100842.57
100906.46
100909.53
100910.17
100910.8
100904.98
100553.26
100342.67
100317.64
100296
100268.17
100916.62
100917.23
100917.06
100917.79
100918.46
101022.71
101015.16
101013.26
101011.75
101011.19
101029.2
101029.75
101030.69
101031.73
101035.27
101077.78
101075.47
101074.76
101074.1
101073.63
101112.73
101113.1
101113.6
101114.18
101116.86
101144.6
101142.06
101141.61
101141.23
101140.95
101164.09
101164.3
101164.58
101164.93
101167.06
101185.87
101184.1
101183.84
101183.63
101183.46
101199.42
101199.55
101199.7
101199.9
101201.38
101214.36
101213.09
101212.95
101212.85
101212.75
101224.07
101224.14
101224.2
101224.3
101225.37
101234.79
101233.9
101233.83
101233.79
101233.75
101242.07
101242.1
101242.12
101242.16
101242.88
101249.87
101249.32
101249.3
101249.29
101249.27
101255.54
101255.55
101255.54
101255.55
101255.95
101261.25
101260.98
101260.99
101261
101260.99
101265.77
101265.77
101265.76
101265.75
101265.9
101269.99
101269.95
101269.96
101269.97
101269.97
101273.68
101273.68
101273.67
101273.65
101273.61
101276.84
101276.95
101276.96
101276.97
101276.97
101279.91
101279.91
101279.9
101279.88
101279.74
101282.36
101282.53
101282.55
101282.56
101282.56
101284.96
101284.96
101284.95
101284.93
101284.75
101286.93
101287.12
101287.14
101287.14
101287.14
101289.17
101289.17
101289.16
101289.15
101288.95
101290.82
101291.02
101291.03
101291.04
101291.04
101292.77
101292.77
101292.77
101292.76
101292.57
101294.2
101294.39
101294.4
101294.4
101294.4
101295.93
101295.93
101295.93
101295.92
101295.74
101297.19
101297.37
101297.38
101297.38
101297.38
101298.71
101298.71
101298.71
101298.7
101298.57
101298.58
101298.71
101298.72
101298.72
101298.72
101297.37
101297.38
101297.37
101297.37
101297.19
101295.74
101295.92
101295.93
101295.94
101295.94
101294.41
101294.42
101294.41
101294.4
101294.21
101292.58
101292.78
101292.79
101292.79
101292.79
101291.06
101291.06
101291.05
101291.04
101290.84
101288.97
101289.17
101289.18
101289.19
101289.19
101287.18
101287.18
101287.17
101287.16
101286.95
101284.76
101284.96
101284.97
101284.98
101284.98
101282.58
101282.58
101282.57
101282.56
101282.38
101279.76
101279.92
101279.93
101279.94
101279.94
101277
101277
101276.99
101276.98
101276.87
101273.64
101273.69
101273.7
101273.71
101273.71
101270.01
101270.01
101270
101269.99
101270.01
101265.92
101265.79
101265.8
101265.81
101265.81
101261.05
101261.06
101261.05
101261.04
101261.28
101255.98
101255.61
101255.6
101255.6
101255.59
101249.35
101249.37
101249.37
101249.39
101249.91
101242.92
101242.25
101242.21
101242.19
101242.16
101233.85
101233.89
101233.93
101233.99
101234.83
101225.41
101224.39
101224.29
101224.23
101224.17
101212.87
101212.95
101213.05
101213.18
101214.41
101201.42
101199.96
101199.78
101199.64
101199.52
101183.55
101183.7
101183.9
101184.14
101185.89
101167.09
101164.96
101164.63
101164.37
101164.17
101140.97
101141.23
101141.58
101142.01
101144.6
101116.97
101114.06
101113.5
101113.04
101112.69
101073.78
101074.23
101074.84
101075.53
101078.28
101033.53
101029.92
101028.97
101028.13
101027.62
101004.8
101005.3
101006.68
101008.51
101017.87
100935.63
100936.45
100936.11
100936.74
100936.69
100430.49
100444.69
100452.45
100463.42
100573.86
100664.44
100398.41
100364.02
100334.08
100294.25
101590.68
101578.78
101566.2
101549.26
101367.71
101010.16
100889.3
100875.83
100867.34
100847.28
101226.5
101141.48
101211.59
101128.53
100950.95
100929.49
100909.94
100882.22
101385.54
101382.27
101378.72
101372.86
101317.33
101721.71
101731.34
101736.27
101734.17
101713.32
101462.65
101530.66
101527.29
101521.21
101499.27
101078.66
101112.52
101128.71
101147.19
101238.08
101464.29
101507.72
101510.97
101510.21
101507.75
101490.27
101776.03
101445.81
101522.81
101310.4
101312.65
101305.89
101310.37
101307.35
101305.55
101306.83
101307.28
101298.64
101298.65
101298.64
101298.64
101298.52
101297.15
101297.31
101297.31
101297.31
101297.31
101295.88
101295.89
101295.88
101295.88
101295.71
101294.19
101294.37
101294.38
101294.38
101294.38
101292.76
101292.76
101292.76
101292.75
101292.56
101290.83
101291.03
101291.03
101291.04
101291.04
101289.18
101289.18
101289.18
101289.17
101288.97
101286.96
101287.15
101287.16
101287.16
101287.16
101284.98
101284.98
101284.97
101284.96
101284.78
101282.4
101282.58
101282.59
101282.6
101282.6
101279.96
101279.96
101279.95
101279.93
101279.79
101276.9
101277
101277.01
101277.02
101277.02
101273.74
101273.74
101273.73
101273.71
101273.68
101270.06
101270.02
101270.03
101270.04
101270.04
101265.84
101265.85
101265.83
101265.83
101265.97
101261.33
101261.06
101261.06
101261.07
101261.07
101255.61
101255.62
101255.62
101255.63
101256.02
101249.93
101249.39
101249.37
101249.37
101249.34
101242.15
101242.18
101242.2
101242.24
101242.93
101234.82
101233.98
101233.91
101233.87
101233.82
101224.14
101224.2
101224.27
101224.37
101225.37
101214.32
101213.14
101213
101212.9
101212.81
101199.44
101199.56
101199.7
101199.89
101201.27
101185.67
101184.07
101183.82
101183.63
101183.47
101164.13
101164.34
101164.6
101164.93
101166.8
101144.25
101142.09
101141.66
101141.31
101141.04
101112.72
101113.08
101113.55
101114.09
101116.28
101076.51
101074.81
101074.15
101073.54
101073.09
101029.7
101030.23
101031.07
101032
101033.93
101021.24
101017.07
101015.36
101013.94
101013.24
100899.06
100900.21
100901.23
100902.79
100905.13
100560.23
100384.93
100366.27
100351.33
100330.9
100893.41
100901.64
100902.6
100904.92
100908.99
100880.93
100727.95
100707.96
100690.82
100658.48
101266.58
101273.52
101284.74
101291.6
101324.08
101559.62
101562.39
101567.18
101555.45
101386.22
101408.54
101407.74
101413.08
101362.94
101379.3
101425.38
101413.89
101406.09
101379.41
102350.15
102307.82
102271.4
102224.85
101864.37
101774.44
102022.42
102043.68
102059.22
102075.27
101266.22
101273.19
101284.42
101291.3
101323.99
100880.93
100727.87
100707.89
100690.76
100658.43
100893.53
100901.75
100902.7
100905.02
100909.1
100560.33
100385.02
100366.35
100351.44
100331.01
100899.2
100900.35
100901.39
100902.95
100905.33
101021.39
101017.23
101015.53
101014.12
101013.43
101029.82
101030.35
101031.19
101032.11
101034.04
101076.59
101074.89
101074.24
101073.64
101073.18
101112.79
101113.14
101113.61
101114.15
101116.32
101144.26
101142.12
101141.7
101141.35
101141.08
101164.16
101164.36
101164.63
101164.95
101166.8
101185.65
101184.07
101183.82
101183.63
101183.47
101199.41
101199.53
101199.67
101199.86
101201.22
101214.25
101213.09
101212.95
101212.85
101212.76
101224.07
101224.14
101224.21
101224.31
101225.3
101234.73
101233.9
101233.83
101233.79
101233.74
101242.05
101242.08
101242.1
101242.15
101242.83
101249.84
101249.3
101249.27
101249.27
101249.24
101255.5
101255.52
101255.51
101255.53
101255.93
101261.24
101260.96
101260.96
101260.96
101260.96
101265.75
101265.75
101265.74
101265.73
101265.89
101269.99
101269.93
101269.94
101269.95
101269.95
101273.66
101273.66
101273.65
101273.64
101273.62
101276.85
101276.93
101276.95
101276.96
101276.95
101279.9
101279.9
101279.89
101279.88
101279.75
101282.36
101282.52
101282.53
101282.54
101282.54
101284.94
101284.94
101284.93
101284.92
101284.75
101286.93
101287.11
101287.12
101287.13
101287.12
101289.15
101289.15
101289.15
101289.14
101288.95
101290.82
101291
101291.01
101291.02
101291.02
101292.75
101292.75
101292.75
101292.74
101292.56
101294.19
101294.37
101294.37
101294.38
101294.37
101295.9
101295.9
101295.9
101295.89
101295.72
101297.17
101297.33
101297.34
101297.34
101297.34
101298.72
101298.72
101298.72
101298.71
101298.56
101299.88
101300.04
101300.04
101300.05
101300.05
101298.49
101298.62
101298.63
101298.63
101298.63
101297.3
101297.3
101297.3
101297.29
101297.12
101295.68
101295.86
101295.87
101295.88
101295.87
101294.36
101294.36
101294.36
101294.35
101294.16
101292.53
101292.73
101292.74
101292.75
101292.74
101291.02
101291.02
101291.01
101291
101290.8
101288.93
101289.14
101289.15
101289.16
101289.16
101287.15
101287.15
101287.14
101287.13
101286.92
101284.74
101284.94
101284.96
101284.97
101284.97
101282.57
101282.57
101282.56
101282.55
101282.36
101279.75
101279.91
101279.92
101279.93
101279.93
101277.01
101277.01
101277
101276.98
101276.87
101273.64
101273.7
101273.72
101273.73
101273.73
101270.04
101270.04
101270.02
101270.01
101270.03
101265.95
101265.82
101265.83
101265.85
101265.85
101261.07
101261.08
101261.07
101261.06
101261.31
101256.02
101255.62
101255.62
101255.62
101255.61
101249.36
101249.38
101249.38
101249.39
101249.94
101242.95
101242.24
101242.2
101242.19
101242.16
101233.81
101233.86
101233.9
101233.96
101234.85
101225.43
101224.36
101224.26
101224.2
101224.13
101212.78
101212.88
101212.98
101213.12
101214.4
101201.4
101199.89
101199.69
101199.54
101199.42
101183.43
101183.59
101183.8
101184.07
101185.87
101167.02
101164.86
101164.51
101164.22
101164.01
101140.83
101141.12
101141.49
101141.95
101144.53
101116.73
101114
101113.42
101112.92
101112.55
101073.41
101073.89
101074.54
101075.26
101077.62
101035.05
101031.47
101030.42
101029.48
101028.93
101010.9
101011.47
101012.98
101014.89
101022.45
100918.18
100917.5
100916.77
100916.94
100916.33
100267.87
100295.7
100317.36
100342.4
100552.95
100904.67
100910.43
100909.78
100909.13
100906.05
100842.21
100865.51
100874.91
100887.5
100961.54
101197.43
101113.79
101099.02
101081.61
101058.91
102066.4
102031.42
101996.06
101955.15
101598.83
101155.05
100931.93
100904.6
100876.56
100845.71
101388.88
101383.91
101378.83
101370.82
101291.94
101209.99
101257.09
101261.34
101264.91
101262.03
100877.64
100902.62
100915.25
100933.21
101075.49
101009.69
100888.36
100874.86
100866.35
100846.21
100962.99
100982.09
100991.11
101001.56
101088.85
101128.89
100950.94
100929.44
100909.85
100882.1
101385.97
101382.69
101379.15
101373.29
101317.54
100903.02
100760.12
100737.82
100715.7
100682.93
100878.76
100886.34
100888.63
100892.31
100911.01
100549.88
100371.7
100353.01
100338.31
100316.39
100902.93
100904.22
100905.48
100906.89
100906.39
101021.78
101017.83
101016.05
101014.56
101013.91
101029.58
101030.13
101031.01
101031.96
101033.64
101076.68
101075.25
101074.58
101073.96
101073.5
101113.16
101113.52
101113.99
101114.53
101116.49
101144.35
101142.37
101141.95
101141.6
101141.33
101164.32
101164.53
101164.79
101165.11
101166.85
101185.67
101184.17
101183.92
101183.73
101183.57
101199.48
101199.6
101199.74
101199.92
101201.23
101214.25
101213.12
101212.99
101212.89
101212.8
101224.1
101224.17
101224.23
101224.33
101225.3
101234.73
101233.91
101233.85
101233.81
101233.76
101242.07
101242.1
101242.12
101242.16
101242.83
101249.84
101249.31
101249.28
101249.28
101249.25
101255.5
101255.52
101255.52
101255.53
101255.93
101261.24
101260.97
101260.97
101260.98
101260.97
101265.74
101265.75
101265.74
101265.73
101265.89
101269.99
101269.93
101269.94
101269.95
101269.95
101273.66
101273.66
101273.65
101273.64
101273.61
101276.84
101276.93
101276.94
101276.95
101276.95
101279.88
101279.89
101279.88
101279.87
101279.74
101282.36
101282.52
101282.53
101282.54
101282.54
101284.93
101284.94
101284.93
101284.92
101284.74
101286.93
101287.11
101287.12
101287.13
101287.13
101289.14
101289.14
101289.14
101289.13
101288.94
101290.81
101291
101291.01
101291.01
101291.01
101292.74
101292.75
101292.74
101292.73
101292.55
101294.18
101294.36
101294.37
101294.37
101294.37
101295.9
101295.9
101295.9
101295.89
101295.72
101297.17
101297.33
101297.34
101297.34
101297.34
101298.71
101298.71
101298.71
101298.71
101298.55
101299.84
101299.96
101299.96
101299.96
101299.96
101298.56
101298.69
101298.69
101298.7
101298.69
101297.35
101297.35
101297.35
101297.34
101297.18
101295.73
101295.9
101295.91
101295.91
101295.91
101294.4
101294.4
101294.4
101294.39
101294.2
101292.58
101292.77
101292.77
101292.78
101292.78
101291.05
101291.05
101291.05
101291.04
101290.84
101288.97
101289.17
101289.18
101289.19
101289.18
101287.18
101287.18
101287.17
101287.16
101286.96
101284.78
101284.97
101284.98
101284.99
101284.99
101282.59
101282.59
101282.58
101282.57
101282.4
101279.79
101279.93
101279.94
101279.95
101279.95
101277.03
101277.03
101277.02
101277
101276.9
101273.67
101273.71
101273.72
101273.74
101273.74
101270.03
101270.03
101270.02
101270.01
101270.05
101265.96
101265.82
101265.82
101265.84
101265.83
101261.06
101261.06
101261.05
101261.05
101261.32
101256.01
101255.62
101255.61
101255.61
101255.6
101249.35
101249.37
101249.38
101249.4
101249.93
101242.92
101242.25
101242.2
101242.19
101242.15
101233.83
101233.87
101233.91
101233.98
101234.81
101225.37
101224.38
101224.29
101224.22
101224.16
101212.83
101212.92
101213.02
101213.16
101214.31
101201.27
101199.94
101199.76
101199.62
101199.5
101183.57
101183.73
101183.93
101184.17
101185.7
101166.85
101165.09
101164.77
101164.51
101164.3
101141.31
101141.57
101141.93
101142.35
101144.34
101116.46
101114.49
101113.95
101113.47
101113.12
101073.43
101073.89
101074.51
101075.18
101076.63
101033.55
101031.86
101030.91
101030.02
101029.48
101013.77
101014.41
101015.91
101017.7
101021.66
100906.17
100906.76
100905.35
100904.1
100902.82
100316.2
100338.13
100352.84
100371.53
100549.66
100910.88
100892.22
100888.54
100886.25
100878.68
100683.03
100715.77
100737.87
100760.15
100902.96
101025.49
100949.35
100939.82
100930.32
100913.69
100671.24
100691.22
100703.31
100717.89
100834.68
100605.44
100461.87
100448.76
100439.32
100424.66
100917.44
100918.05
100918.92
100920.48
100927.49
101023.2
101017.31
101015.71
101014.38
101013.85
101031.37
101031.81
101032.59
101033.42
101034.97
101078.07
101076.44
101075.84
101075.29
101074.9
101114.14
101114.44
101114.85
101115.34
101117.79
101145.57
101143.06
101142.68
101142.39
101142.17
101164.98
101165.14
101165.36
101165.64
101167.86
101186.49
101184.59
101184.38
101184.22
101184.09
101199.89
101199.99
101200.1
101200.26
101201.87
101214.75
101213.4
101213.28
101213.2
101213.13
101224.37
101224.42
101224.47
101224.55
101225.69
101235.03
101234.1
101234.04
101234.01
101233.98
101242.25
101242.27
101242.28
101242.32
101243.07
101250.03
101249.44
101249.43
101249.43
101249.41
101255.63
101255.64
101255.64
101255.64
101256.07
101261.34
101261.06
101261.06
101261.07
101261.07
101265.83
101265.84
101265.83
101265.82
101265.96
101270.04
101270.01
101270.02
101270.03
101270.03
101273.73
101273.73
101273.72
101273.71
101273.65
101276.87
101277
101277.01
101277.02
101277.02
101279.95
101279.96
101279.95
101279.93
101279.76
101282.37
101282.58
101282.59
101282.6
101282.6
101285
101285
101284.99
101284.98
101284.75
101286.93
101287.17
101287.18
101287.18
101287.18
101289.2
101289.2
101289.2
101289.19
101288.95
101290.82
101291.05
101291.06
101291.07
101291.07
101292.8
101292.8
101292.79
101292.78
101292.56
101294.19
101294.41
101294.41
101294.42
101294.42
101295.93
101295.93
101295.93
101295.92
101295.72
101297.17
101297.36
101297.37
101297.37
101297.37
101298.7
101298.7
101298.7
101298.7
101298.56
101298.51
101298.66
101298.66
101298.67
101298.66
101297.33
101297.34
101297.33
101297.33
101297.13
101295.69
101295.89
101295.9
101295.9
101295.9
101294.39
101294.39
101294.39
101294.38
101294.16
101292.54
101292.76
101292.77
101292.78
101292.78
101291.05
101291.05
101291.04
101291.03
101290.8
101288.94
101289.17
101289.18
101289.19
101289.18
101287.17
101287.17
101287.17
101287.15
101286.92
101284.74
101284.97
101284.98
101284.99
101284.99
101282.59
101282.59
101282.58
101282.57
101282.37
101279.75
101279.93
101279.94
101279.95
101279.95
101277.02
101277.03
101277.01
101277
101276.87
101273.65
101273.71
101273.73
101273.74
101273.74
101270.04
101270.04
101270.03
101270.02
101270.05
101265.98
101265.83
101265.84
101265.85
101265.85
101261.07
101261.08
101261.07
101261.07
101261.36
101256.09
101255.64
101255.64
101255.64
101255.63
101249.4
101249.42
101249.42
101249.44
101250.05
101243.09
101242.31
101242.27
101242.26
101242.23
101233.95
101233.99
101234.02
101234.08
101235.05
101225.7
101224.52
101224.44
101224.39
101224.33
101213.09
101213.16
101213.24
101213.36
101214.76
101201.87
101200.22
101200.05
101199.93
101199.83
101184.01
101184.15
101184.31
101184.53
101186.48
101167.84
101165.56
101165.27
101165.04
101164.87
101142.05
101142.28
101142.59
101142.98
101145.57
101117.77
101115.19
101114.69
101114.27
101113.96
101074.77
101075.17
101075.72
101076.35
101078.29
101035.93
101033.67
101032.8
101032.03
101031.51
101011.45
101012.17
101013.52
101015.17
101022.86
100927.19
100919.82
100918.62
100917.98
100917.51
100491.91
100500.32
100504.24
100512.14
100613.66
100789.99
100566.77
100539.47
100513.37
100479.32
101013.33
101018.65
101019.07
101019.28
101031.01
101121.77
100930.88
100910
100893.62
100866.58
101472.95
101499.92
101521.74
101540.37
101547.73
101183.05
101142.15
101132.35
101122.04
101105.04