/*--------------------------------*- C++ -*----------------------------------*\
  =========                 |
  \\      /  F ield         | OpenFOAM: The Open Source CFD Toolbox
   \\    /   O peration     | Website:  https://openfoam.org
    \\  /    A nd           | Version:  7
     \\/     M anipulation  |
\*---------------------------------------------------------------------------*/
FoamFile
{
    version     2.0;
    format      ascii;
    class       surfaceScalarField;
    location    "230";
    object      phi;
}
// * * * * * * * * * * * * * * * * * * * * * * * * * * * * * * * * * * * * * //

dimensions      [1 0 -1 0 0 0 0];

internalField   nonuniform List<scalar> 
74673
(
2.7531006e-07
-0.0022525554
-1.7937193e-07
3.8917752e-07
-0.0027084837
-2.0789328e-07
4.3787202e-07
-0.0030834921
-2.2881097e-07
4.5061336e-07
-0.0034652429
-2.4915748e-07
-0.056496568
-4.0259842e-06
-4.6733445e-07
-5.2959671e-07
-0.05649415
-3.5845162e-06
2.140592e-06
-4.4457688e-07
-5.0687054e-07
-0.0034652767
-2.1738431e-07
2.2898911e-07
-4.3986066e-07
-0.003083568
-1.9984045e-07
2.0929027e-07
-2.9813972e-07
-0.0027086309
-1.8131671e-07
1.8800728e-07
-0.0022528577
-1.5485346e-07
1.5905344e-07
3.1371345e-07
-0.00225318
-1.0456735e-07
1.1411108e-07
4.4546923e-07
-0.0027087761
-1.2315553e-07
1.3694431e-07
4.9789657e-07
-0.0030836375
-1.3605565e-07
1.5344993e-07
5.0161234e-07
-0.0034653001
-1.4863091e-07
1.6833238e-07
-0.056491815
-2.5892676e-06
1.6022105e-06
-8.4578768e-07
-4.9879051e-07
-0.056489461
-1.5463785e-06
9.7686775e-07
-1.2862883e-06
-5.0239199e-07
-0.0034653141
-8.3053397e-08
1.007742e-07
-4.5945165e-07
-0.0030836956
-7.6222485e-08
9.1551873e-08
-3.2807143e-07
-0.0027089189
-6.931389e-08
8.1194699e-08
-0.0022535162
-5.8752736e-08
6.6823735e-08
3.4330419e-07
-0.0022538673
-2.0026675e-08
2.8140596e-08
4.7060649e-07
-0.0027090579
-2.3968582e-08
3.5841139e-08
5.040735e-07
-0.0030837444
-2.5943504e-08
4.1353995e-08
4.862147e-07
-0.003465314
-2.8339751e-08
4.6132235e-08
-0.056487065
-6.9669077e-07
4.7172985e-07
-1.6841069e-06
-4.7222109e-07
-0.056484613
-1.405712e-07
1.3984871e-07
-1.9790742e-06
-5.0580332e-07
-0.0034652993
7.5943013e-09
1.1291411e-08
-4.8305075e-07
-0.0030837837
7.0557371e-09
9.5437187e-09
-3.5787079e-07
-0.0027091962
6.038438e-09
7.2666307e-09
-0.0022542347
5.8601181e-09
3.6907067e-09
3.7296393e-07
-0.0022546185
2.0722379e-08
-9.8441034e-09
4.9486691e-07
-0.0027093327
2.3158715e-08
-8.5640542e-09
5.0464739e-07
-0.0030838113
2.5806597e-08
-7.9655319e-09
4.5946046e-07
-0.0034652736
2.7662368e-08
-8.1052857e-09
-0.056482084
1.5575663e-07
-5.2334562e-08
-2.1735806e-06
-4.4622262e-07
-0.05647953
3.0185786e-07
-1.3960316e-07
-2.2699173e-06
-5.0446436e-07
-0.0034652364
3.8324222e-08
-1.7465976e-08
-5.0718323e-07
-0.003083828
3.5882446e-08
-1.6568922e-08
-3.919901e-07
-0.0027094643
3.2537251e-08
-1.6304208e-08
-0.0022550229
2.9053269e-08
-1.6609424e-08
4.0881099e-07
-0.0022554605
3.6865281e-08
-8.3923766e-09
5.1623462e-07
-0.0027096053
4.0773006e-08
-7.4295019e-09
5.0290714e-07
-0.0030838518
4.4497691e-08
-7.4994833e-09
4.2698038e-07
-0.0034651993
4.7152312e-08
-8.3367586e-09
-0.056477171
4.089998e-07
-1.0727785e-07
-2.2347335e-06
-4.1044681e-07
-0.056474929
5.1235646e-07
-2.2321873e-07
-2.1208051e-06
-4.9799126e-07
-0.0034651383
5.5496136e-08
-2.9082573e-08
-5.2870875e-07
-0.0030838462
5.2555541e-08
-2.7602582e-08
-4.2628892e-07
-0.00270973
4.8679403e-08
-2.6799724e-08
-0.0022559051
4.4326993e-08
-2.6062438e-08
4.4423891e-07
-0.0022563718
5.1377741e-08
-2.9473361e-08
5.43413e-07
-0.0027098555
5.6195478e-08
-3.0196225e-08
5.0137968e-07
-0.0030838337
6.0309589e-08
-3.100969e-08
4.0077817e-07
-0.0034650684
6.3224546e-08
-3.2574861e-08
-0.056473013
6.1612051e-07
-2.4427659e-07
-1.8868483e-06
-4.0009394e-07
-0.056471562
7.1253279e-07
-2.5608206e-07
-1.5077421e-06
-5.0524203e-07
-0.0034649974
7.0135181e-08
-3.628209e-08
-5.5788756e-07
-0.003083814
6.7474617e-08
-3.4874889e-08
-4.6603086e-07
-0.0027099777
6.3874965e-08
-3.4168259e-08
-0.0022568633
5.9187575e-08
-3.3733145e-08
4.89707e-07
-0.0022573838
6.8592417e-08
-3.8658706e-08
5.7929324e-07
-0.0027101012
7.2639568e-08
-3.9066979e-08
5.2092715e-07
-0.0030837923
7.5881865e-08
-3.9480383e-08
4.0936365e-07
-0.0034649235
7.8218067e-08
-4.0650614e-08
-0.056470821
8.1523468e-07
-2.6287255e-07
-8.8414432e-07
-4.6804223e-07
-0.056471213
9.8249657e-07
-2.6880314e-07
1.4584921e-07
-5.6598323e-07
-0.0034648668
8.675338e-08
-4.5857023e-08
-6.2379527e-07
-0.0030837747
8.4726767e-08
-4.4868313e-08
-5.2562538e-07
-0.0027102375
8.1736775e-08
-4.4545469e-08
-0.0022579427
7.7163915e-08
-4.382069e-08
5.846938e-07
-0.0022585651
8.6075438e-08
-4.942525e-08
7.1354235e-07
-0.0027104074
9.1186513e-08
-5.0629691e-08
6.8340686e-07
-0.0030837884
9.4504139e-08
-5.105408e-08
6.2005043e-07
-0.0034648485
9.6757344e-08
-5.18162e-08
-0.056473164
1.2129452e-06
-2.6938495e-07
1.6266393e-06
-9.3044533e-07
-0.056477092
1.517835e-06
-2.6280223e-07
3.6030779e-06
-9.1443775e-07
-0.0034649156
1.0830398e-07
-5.7568565e-08
-8.8167111e-07
-0.0030838695
1.0524905e-07
-5.7330763e-08
-6.8180391e-07
-0.0027106524
1.0097779e-07
-5.6647875e-08
-0.002259286
9.3632328e-08
-5.4601255e-08
8.4270339e-07
-0.0022601666
9.9195007e-08
-6.2148135e-08
1.1723571e-06
-0.0027110301
1.1095995e-07
-6.3290374e-08
1.3355135e-06
-0.0030840873
1.1794259e-07
-6.3625688e-08
1.4893609e-06
-0.0034651287
1.2263012e-07
-6.3492205e-08
-0.056483609
1.9674048e-06
-2.6458458e-07
6.3030435e-06
-2.4167088e-06
-0.056493421
2.5862549e-06
-3.3803015e-07
9.9801819e-06
-2.0280677e-06
-0.0034655676
1.3774015e-07
-8.7717948e-08
-1.6483105e-06
-0.0030845087
1.2968904e-07
-8.8277323e-08
-1.0920447e-06
-0.0027116163
1.1827428e-07
-8.8978153e-08
-0.0022612717
1.010345e-07
-8.7959264e-08
1.450891e-06
-0.0022627308
9.6511752e-08
-8.9103922e-08
2.3518916e-06
-0.0027125499
1.2021885e-07
-8.796885e-08
3.0766698e-06
-0.0030852852
1.3646542e-07
-8.5046802e-08
3.8229711e-06
-0.0034663811
1.4932661e-07
-8.2150811e-08
-0.056507493
3.3188754e-06
-1.9906266e-07
1.4775356e-05
-5.8010714e-06
-0.056526534
4.1962163e-06
-1.1447332e-07
2.0759672e-05
-4.5559331e-06
-0.0034676909
1.5470178e-07
-9.046524e-08
-3.3357075e-06
-0.0030865454
1.3472084e-07
-9.5176971e-08
-1.9434562e-06
-0.002713954
1.0898865e-07
-9.7989349e-08
-0.002264649
7.2231181e-08
-9.7485897e-08
2.5995233e-06
-0.0022671796
2.8789015e-08
-9.8621213e-08
4.6588195e-06
-0.0027159942
8.2867421e-08
-1.0234167e-07
6.5491438e-06
-0.0030884575
1.2182776e-07
-1.0035633e-07
8.4764386e-06
-0.0034696761
1.5175947e-07
-9.3913772e-08
-0.056551563
5.3112281e-06
-1.704035e-08
2.8210568e-05
-1.1954796e-05
-0.056583826
6.7266168e-06
9.5025023e-08
3.7396323e-05
-9.1412599e-06
-0.0034725384
1.376108e-07
-8.9270958e-08
-6.3718916e-06
-0.0030912242
9.3580152e-08
-9.6576078e-08
-3.4392188e-06
-0.0027188686
3.7612351e-08
-9.6801888e-08
-0.002270495
-3.6877445e-08
-8.692031e-08
4.492952e-06
-0.002274806
-1.1509721e-07
-6.8203419e-08
8.5321623e-06
-0.002722803
-2.2910192e-08
-8.2552511e-08
1.242745e-05
-0.0030950883
5.2116502e-08
-8.3866545e-08
1.6367947e-05
-0.0034765176
1.1455047e-07
-7.5872201e-08
-0.056624845
8.5266778e-06
2.0529737e-07
4.8654458e-05
-2.184135e-05
-0.056676523
1.080396e-05
3.2355367e-07
6.2390957e-05
-1.6502362e-05
-0.0034818945
9.3001774e-08
-5.5793065e-08
-1.1206484e-05
-0.003100328
7.705763e-09
-6.4577619e-08
-5.785177e-06
-0.0027280762
-8.6578112e-08
-6.3263129e-08
-0.0022803518
-1.9060416e-07
-4.8841421e-08
7.3902691e-06
-0.0022874512
-2.6252333e-07
-3.0282216e-08
1.4507719e-05
-0.0027350097
-1.4190539e-07
-4.2906228e-08
2.1533778e-05
-0.0031072863
-2.3941602e-08
-4.4472128e-08
2.860514e-05
-0.0034890194
8.8649654e-08
-3.5243982e-08
-0.056741464
1.3836849e-05
3.7061888e-07
7.9338253e-05
-3.6959644e-05
-0.056823558
1.804622e-05
1.8879018e-07
0.00010081908
-2.7761477e-05
-0.0034983142
1.2801774e-07
-3.1893961e-08
-1.8603694e-05
-0.0031163879
-1.8190999e-08
-3.8602807e-08
-9.390151e-06
-0.0027440244
-1.6612873e-07
-3.417111e-08
-0.0022965093
-3.1062582e-07
-2.1369946e-08
1.1887235e-05
-0.0023080752
-2.9001428e-07
-3.3353061e-08
2.3749018e-05
-0.0027557092
-1.1496211e-07
-6.313019e-08
3.5595176e-05
-0.0031282262
6.9036499e-08
-7.7568439e-08
4.7489208e-05
-0.003510385
2.5605099e-07
-7.9436727e-08
-0.056928304
2.3801454e-05
-5.0641985e-07
0.00012893962
-6.1180729e-05
-0.05706345
3.1797992e-05
-2.0857253e-06
0.00016661426
-4.5770476e-05
-0.0035261166
5.3984987e-07
-2.1893419e-07
-3.0420032e-05
-0.0031436782
3.0075822e-07
-1.9975e-07
-1.5106416e-05
-0.0027709333
7.7613687e-08
-1.6832844e-07
-0.002322949
-1.1919756e-07
-1.1344247e-07
1.9370318e-05
-0.0023422168
1.5573879e-07
-2.5968898e-07
3.8888845e-05
-0.0027904668
3.4699893e-07
-3.3289714e-07
5.8522021e-05
-0.0031635256
5.9692693e-07
-3.8324385e-07
7.8257827e-05
-0.0035463161
8.8851545e-07
-4.24934e-07
-0.057241089
4.1284336e-05
-4.3768507e-06
0.00021898835
-0.00010101671
-0.057485125
5.1448793e-05
-7.2253795e-06
0.000300829
-7.5249889e-05
-0.0035726688
1.2097701e-06
-6.2477336e-07
-4.9850014e-05
-0.0031892413
8.761428e-07
-5.6140809e-07
-2.4803774e-05
-0.0028156439
6.397278e-07
-5.1128413e-07
-0.0023670617
5.2411941e-07
-4.8297451e-07
3.3461688e-05
-0.0024003479
1.0987998e-06
-1.2783802e-06
7.1439792e-05
-0.0028536857
9.8379136e-07
-9.221386e-07
0.00011047386
-0.0032285413
1.1516864e-06
-8.870238e-07
0.0001500938
-0.0036129515
1.6568502e-06
-9.9412463e-07
-0.057819393
7.4391394e-05
-1.2957855e-05
0.00042292817
-0.00023039607
-0.058136827
9.8157396e-05
-1.5348545e-05
0.00046502061
-0.0001692708
-0.0036738146
1.0267828e-06
-1.2910251e-06
-0.00010704064
-0.0032897266
1.2039056e-07
-1.1675942e-06
-4.803296e-05
-0.0029109823
-2.6093689e-07
-1.4553846e-06
-0.0024450422
-9.4228102e-07
-2.3963479e-06
9.6969508e-05
-0.0025286492
-1.3604047e-05
2.388941e-07
0.00017892902
-0.0029837332
-7.8450242e-06
-1.3645192e-06
0.00025488563
-0.0033601533
-4.1939708e-06
-1.3364698e-06
0.00033270842
-0.0037472831
-3.7534071e-06
-6.0074582e-07
-0.058258333
6.615314e-05
1.0030779e-05
0.00037803173
0.00010203723
-0.059651839
3.9286225e-05
-3.0135259e-05
0.0012823196
7.1376717e-05
-0.0037208898
1.1477192e-05
-7.2070131e-06
4.6144315e-05
-0.0033382664
1.0407708e-05
-7.0587414e-06
2.3253139e-05
-0.0029657142
1.2540411e-05
-7.6604368e-06
-0.0025170441
2.2261074e-05
-1.0612994e-05
-2.5225674e-05
-0.0024003964
-0.00010054918
9.1384453e-06
-5.3974218e-05
-0.0028272318
-0.00011307778
3.3487275e-06
-8.9411271e-05
-0.0031837035
-0.00012098685
1.8646775e-06
-0.00013173732
-0.0035509715
-0.00012968188
2.0901307e-06
-0.059716933
-0.0018850966
3.0171434e-05
0.0017882834
0.00056256113
-0.056460447
-0.0031080578
6.7777499e-05
-0.00077876567
0.00039085041
-0.0031919611
-0.00019987721
1.2577928e-05
0.00024138021
-0.0028591983
-0.00018686285
1.1828295e-05
0.00011047856
-0.0025378094
-0.00017097762
1.2457882e-05
-0.0021607484
-0.00014433982
1.5170359e-05
-2.0596242e-05
0.0020315167
-0.0021306965
-0.0020409722
-4.970781e-05
0.002413523
-0.0025168635
-0.0024053574
-8.0615845e-05
0.0027546895
-0.002854338
-0.0027286416
-0.0001118936
0.0031198521
-0.0032084999
-0.0030720354
0.071648378
-0.027749272
-0.034768188
-0.065703259
0.00028681195
0.087073028
-0.014450947
-0.0043685724
0.00018849724
0.0038330837
-0.00081479367
9.9247406e-05
0.0033798401
-0.00072276319
2.8534806e-05
0.002953528
-0.00064026908
0.0024691463
-0.00055343457
-9.7974988e-05
0.0024734652
-6.8821911e-06
-0.00019592843
0.0029623738
-2.3965823e-05
-0.00029652554
0.0033950748
-3.562086e-05
-0.00040665585
0.0038592261
-4.5693735e-05
0.085430493
-0.0015969801
0.00094776345
-0.0002524125
0.085013941
-0.0005520168
0.0012602684
-0.00020204091
0.0038638567
-4.3524255e-05
-0.00015358966
0.0033969737
-3.9941684e-05
-9.4337669e-05
0.0029571592
-4.1495227e-05
0.0024513413
-4.9952721e-05
6.106946e-05
0.0023823544
-5.6862794e-06
0.00013309615
0.0028881279
-1.0840196e-05
0.00021246475
0.0033261172
-1.2705614e-05
0.00029625182
0.0037890453
-1.2728926e-05
0.08478624
-0.00012654736
0.00071665372
-0.00021965111
0.084335429
-2.8575935e-05
0.00079719634
-0.00015628654
0.0037276962
-9.8856623e-07
-9.6068142e-05
0.0032667452
-7.2595723e-07
-4.146935e-05
0.0028334847
-2.1633779e-07
0.0023388603
1.0824732e-06
3.1570006e-05
0.0023080569
3.317065e-07
6.7915004e-05
0.0027979168
2.0679111e-07
0.00010679306
0.0032289441
7.4795906e-08
0.00014825809
0.0036878971
-9.0534589e-09
0.083897204
-4.3407915e-07
0.00066130816
-0.00010251184
0.083574977
1.1372961e-05
0.00046481486
-7.4786539e-05
0.0036607352
6.4639875e-07
-4.8607531e-05
0.003203044
5.9714105e-07
-2.375392e-05
0.0027731064
5.963743e-07
0.0022842032
6.2385681e-07
1.8195197e-05
0.0022654562
7.0745791e-07
3.741033e-05
0.0027535058
7.32632e-07
5.7672592e-05
0.0031826193
7.5947376e-07
7.9047133e-05
0.0036394439
8.0520949e-07
0.083336093
1.0430513e-05
0.00034878526
-6.0943367e-05
0.083151045
6.4868061e-06
0.00027130239
-4.4333006e-05
0.0036226546
7.1881095e-07
-2.8652173e-05
0.0031665352
7.0394582e-07
-1.3830722e-05
0.0027380793
6.825499e-07
0.0022508502
6.5610709e-07
1.0652699e-05
0.0022393406
5.6648681e-07
2.194719e-05
0.0027260894
5.803953e-07
3.3898818e-05
0.0031540686
5.8389594e-07
4.6606659e-05
0.0036096262
5.7650449e-07
0.083005722
3.5455335e-06
0.00021218505
-3.5936365e-05
0.082890623
2.0293001e-06
0.00016705273
-2.6167336e-05
0.003599507
4.7815392e-07
-1.7008583e-05
0.0031443965
4.950813e-07
-8.3242045e-06
0.0027167349
5.0378304e-07
0.0022302062
4.996195e-07
6.5437364e-06
0.0022229496
4.4991261e-07
1.322667e-05
0.0027094644
4.4555947e-07
2.023464e-05
0.0031369331
4.313082e-07
2.7728571e-05
0.0035916893
4.1237369e-07
0.082798808
1.3587112e-06
0.00013202069
-2.1251683e-05
0.082725286
1.1179482e-06
0.00010446011
-1.5567968e-05
0.0035857384
3.6002709e-07
-1.0263109e-05
0.0031312585
3.7737485e-07
-5.1510702e-06
0.0027038728
3.9271686e-07
0.0022172069
4.0110699e-07
4.0525783e-06
0.0022126883
3.5059035e-07
7.9106878e-06
0.0026996511
3.4065936e-07
1.1860472e-05
0.0031270347
3.2590129e-07
1.6099581e-05
0.0035813023
3.1146005e-07
0.082666604
1.0516757e-06
8.2255696e-05
-1.1992725e-05
0.082620193
1.0239366e-06
6.4106076e-05
-8.9090811e-06
0.0035780925
2.6363553e-07
-6.0407565e-06
0.0031239849
2.7496349e-07
-3.1772475e-06
0.002696536
2.8886818e-07
0.0022091746
2.9954685e-07
2.4809173e-06
0.002206473
2.4931186e-07
4.5492215e-06
0.0026943118
2.3860552e-07
6.55668e-06
0.0031218719
2.2718707e-07
8.7159937e-06
0.0035758651
2.1976809e-07
0.082584009
1.0182563e-06
4.9192534e-05
-6.1336049e-06
0.082556364
1.0292166e-06
3.6945247e-05
-4.7005836e-06
0.0035744055
1.8107756e-07
-3.3683672e-06
0.0031204899
1.8433327e-07
-1.9214629e-06
0.0026927815
1.9211057e-07
0.0022044227
2.0105992e-07
1.490476e-06
0.0022028714
1.5716895e-07
2.46424e-06
0.0026917789
1.489537e-07
3.2932037e-06
0.0031196537
1.4349035e-07
4.176863e-06
0.0035735273
1.4385036e-07
0.082535846
1.0439141e-06
2.697028e-05
-2.7699255e-06
0.082521323
9.8088855e-07
1.8897422e-05
-2.2747174e-06
0.0035730622
1.0747691e-07
-1.8036422e-06
0.0031192072
1.0502923e-07
-1.160208e-06
0.0026911461
1.0733856e-07
0.002201698
1.1419373e-07
9.3008166e-07
0.0022007866
7.8908738e-08
1.3434636e-06
0.0026907674
7.5589463e-08
1.583377e-06
0.0031190091
7.5534007e-08
1.8169666e-06
0.0035728721
7.9076922e-08
0.082511671
8.727442e-07
1.2563785e-05
-1.2210832e-06
0.082505808
8.0892342e-07
7.7927532e-06
-1.1487956e-06
0.003572845
6.2948734e-08
-1.0504832e-06
0.0031189574
5.8467167e-08
-7.7470864e-07
0.0026905359
5.6383615e-08
0.0022000493
5.6178268e-08
6.6975836e-07
0.0021994207
4.4645298e-08
8.7240805e-07
0.0026903758
4.8486948e-08
8.9718583e-07
0.0031189744
5.2573212e-08
8.8258351e-07
0.0035728988
5.7439395e-08
0.082502856
8.0438412e-07
4.242602e-06
-7.0878424e-07
0.082502174
7.6722703e-07
1.6052987e-06
-7.6353218e-07
0.0035729829
5.7300007e-08
-7.6893825e-07
0.0031190117
5.2673417e-08
-6.0691539e-07
0.0026902476
4.7604211e-08
0.0021988499
4.1057018e-08
5.5728181e-07
0.0021983187
4.2241485e-08
7.0792752e-07
0.0026901196
4.991873e-08
6.9749718e-07
0.0031190427
5.5161636e-08
6.2713368e-07
0.0035730719
5.9545228e-08
0.082503146
7.4594435e-07
-2.7580512e-07
-5.9758267e-07
0.082505203
7.142076e-07
-1.4611791e-06
-6.6324096e-07
0.0035731466
6.0969115e-08
-6.7102088e-07
0.0031190608
5.7013804e-08
-5.2594769e-07
0.0026899862
5.1968457e-08
0.0021978077
4.4241668e-08
4.9879917e-07
0.0021973144
4.5691546e-08
6.4703568e-07
0.002689842
5.2116065e-08
6.5045761e-07
0.0031190614
5.622715e-08
5.915727e-07
0.0035732091
5.9515899e-08
0.082507963
6.533421e-07
-2.2057666e-06
-5.9083351e-07
0.082511214
5.538886e-07
-2.7020019e-06
-6.3695746e-07
0.0035732555
5.5158952e-08
-6.2177753e-07
0.003119046
5.275429e-08
-4.7164511e-07
0.0026896906
4.9776676e-08
0.0021968422
4.4912047e-08
4.5285264e-07
0.0021963836
4.2433389e-08
6.0576778e-07
0.0026895326
4.5797327e-08
6.3529799e-07
0.0031190131
4.7760892e-08
6.0148034e-07
0.0035732869
4.9529976e-08
0.082514775
4.616055e-07
-3.0116595e-06
-6.0950042e-07
0.082518475
3.7867343e-07
-3.1678055e-06
-6.2521437e-07
0.0035732965
4.4332172e-08
-5.8580886e-07
0.0031189662
4.3287582e-08
-4.2736994e-07
0.0026893646
4.1927336e-08
0.0021959461
3.9156434e-08
4.0826833e-07
0.0021955233
3.5254357e-08
5.6684111e-07
0.0026891925
3.665804e-08
6.1739495e-07
0.0031189044
3.7110079e-08
6.1492468e-07
0.0035732892
3.7370258e-08
0.082522147
2.6646815e-07
-3.1674275e-06
-6.1632594e-07
0.08252573
2.0008205e-08
-3.127358e-06
-6.0916497e-07
0.0035732696
2.0039976e-08
-5.4733208e-07
0.0031188283
2.1287059e-08
-3.8749773e-07
0.0026890159
2.2737461e-08
0.0021951175
2.4085272e-08
3.6927256e-07
0.0021947277
4.3284524e-10
5.2869314e-07
0.002688838
-5.4993657e-09
5.9964585e-07
0.0031187417
-1.0372698e-08
6.2003124e-07
0.0035732356
-1.4745628e-08
0.082529202
-4.6593064e-07
-3.0827128e-06
-6.3081885e-07
0.082532557
-1.2075474e-06
-3.062734e-06
-5.9449044e-07
0.003573185
-6.8775834e-08
-5.1427524e-07
0.003118645
-5.9733133e-08
-3.5187006e-07
0.0026886559
-4.974252e-08
0.0021943539
-3.6829141e-08
3.3378091e-07
0.0021939984
-8.2695262e-08
4.9919916e-07
0.0026884713
-1.0398403e-07
5.8610448e-07
0.0031185422
-1.2012961e-07
6.3255469e-07
0.003573125
-1.3508684e-07
0.082535779
-2.1122281e-06
-3.0665878e-06
-6.9750913e-07
0.08253889
-2.892382e-06
-3.1058866e-06
-6.2068063e-07
0.0035730258
-1.9490227e-07
-5.0492393e-07
0.0031184019
-1.752319e-07
-3.2588837e-07
0.0026882649
-1.5369166e-07
0.0021936423
-1.2468077e-07
2.7743673e-07
-1.3365453e-07
4.0735954e-07
-1.6359058e-07
4.7861088e-07
-1.8641711e-07
5.2172147e-07
-2.0750326e-07
-3.0522637e-06
-3.4025919e-06
-4.9237883e-07
-0.082534039
-7.4033528e-06
1.0164491e-05
-4.63732e-07
-0.0035729834
-5.2744327e-07
6.1472975e-07
-4.0505528e-07
-0.0031184128
-4.8041271e-07
5.6261525e-07
-2.7975168e-07
-0.0026883602
-4.2945124e-07
5.0785866e-07
-0.0021939116
-3.6043718e-07
4.3346911e-07
3.178107e-07
-0.0021942871
-2.4099837e-07
2.9945245e-07
4.7091832e-07
-0.0026885739
-2.893747e-07
3.5035707e-07
5.5402549e-07
-0.0031185577
-3.2519617e-07
3.8723737e-07
5.9320792e-07
-0.0035730871
-3.5784562e-07
4.2237324e-07
-0.082531183
-5.1080941e-06
7.0530857e-06
-4.2074022e-06
-5.7016092e-07
-0.082527968
-3.0531817e-06
4.3247605e-06
-3.9162588e-06
-5.4884374e-07
-0.0035731539
-2.0832258e-07
2.5397341e-07
-4.8270431e-07
-0.0031186685
-1.8859729e-07
2.3340403e-07
-3.3576157e-07
-0.0026887658
-1.6662972e-07
2.1188138e-07
-0.0021946673
-1.3701849e-07
1.814683e-07
3.5582205e-07
-0.0021950573
-6.0442078e-08
9.4746695e-08
5.0545454e-07
-0.0026889493
-7.6471147e-08
1.1036362e-07
5.6251437e-07
-0.0031187579
-8.8384976e-08
1.207726e-07
5.7094311e-07
-0.0035731944
-9.8699274e-08
1.3077681e-07
-0.082524477
-1.5349449e-06
2.3307753e-06
-3.7166566e-06
-5.6516013e-07
-0.082520805
-5.7037748e-07
1.0802657e-06
-3.6163724e-06
-5.7160021e-07
-0.0035732123
-3.0006875e-08
5.4203278e-08
-5.241436e-07
-0.0031188303
-2.5672546e-08
5.0491833e-08
-3.7576546e-07
-0.0026891245
-2.0254829e-08
4.6823246e-08
-0.0021954604
-1.2892749e-08
4.027318e-08
3.9835619e-07
-0.0021958816
1.3571695e-08
8.7042396e-09
5.4544161e-07
-0.0026892935
1.0996362e-08
1.0653517e-08
5.8305285e-07
-0.003118888
9.060084e-09
1.0753022e-08
5.6566252e-07
-0.003573214
8.1372869e-09
1.0908892e-08
-0.08251701
-2.0890304e-08
3.780217e-07
-3.5870012e-06
-5.6658576e-07
-0.08251319
2.7900823e-07
1.6817023e-09
-3.5337766e-06
-5.9695127e-07
-0.0035732
2.8867768e-08
-1.2740891e-08
-5.6856868e-07
-0.0031189333
2.7855706e-08
-1.11174e-08
-4.2317875e-07
-0.0026894577
2.772013e-08
-9.4728842e-09
-0.0021963235
2.7819363e-08
-9.0718913e-09
4.4443267e-07
-0.0021967831
3.510079e-08
-2.0633356e-08
5.8781562e-07
-0.0026896164
3.6521071e-08
-2.1626624e-08
6.0290313e-07
-0.0031189626
3.7758763e-08
-2.3929226e-08
5.5624234e-07
-0.0035731668
3.9804e-08
-2.6376485e-08
-0.082509494
4.4038637e-07
-2.0543234e-07
-3.3752628e-06
-5.5524201e-07
-0.082506026
5.1777049e-07
-3.3294191e-07
-3.0981605e-06
-6.1406114e-07
-0.003573117
4.4503217e-08
-3.5857212e-08
-6.0972629e-07
-0.003118976
4.1980157e-08
-3.3327803e-08
-4.6844462e-07
-0.0026897678
4.0086114e-08
-3.0782424e-08
-0.0021972601
3.7840655e-08
-2.9344115e-08
4.9286491e-07
-0.0021977548
4.0247907e-08
-3.9388888e-08
6.3275959e-07
-0.0026899103
4.3522223e-08
-4.1396361e-08
6.2393425e-07
-0.0031189697
4.6106472e-08
-4.4015031e-08
5.5367447e-07
-0.0035730497
4.9374126e-08
-4.6570538e-08
-0.082502977
6.0455302e-07
-4.7138996e-07
-2.628134e-06
-5.572606e-07
-0.082500675
7.2540998e-07
-6.501462e-07
-1.821137e-06
-6.3925218e-07
-0.0035729651
5.7183486e-08
-6.0294842e-08
-6.5681471e-07
-0.0031189482
5.3153097e-08
-5.762633e-08
-5.2095413e-07
-0.0026900416
4.9308203e-08
-5.5065891e-08
-0.0021982669
4.3904812e-08
-5.2802724e-08
5.5524836e-07
-0.0021988044
4.6996174e-08
-6.5745925e-08
6.9609361e-07
-0.002690168
5.3948957e-08
-6.890047e-08
6.7433087e-07
-0.0031189142
5.8869539e-08
-7.1547898e-08
5.929367e-07
-0.0035728734
6.3842941e-08
-7.419996e-08
-0.082499512
8.3718603e-07
-8.3428506e-07
-5.7280363e-07
-6.7202382e-07
-0.082499903
8.9349122e-07
-1.0540842e-06
1.2228132e-06
-7.4220226e-07
-0.0035727816
6.5224219e-08
-8.7317666e-08
-7.5883008e-07
-0.0031188735
6.0090638e-08
-8.4659564e-08
-6.024794e-07
-0.002690299
5.4848124e-08
-8.1334019e-08
-0.0021993785
4.8155223e-08
-7.6508076e-08
6.6814887e-07
-0.0022000178
5.6654372e-08
-8.6630167e-08
8.6192758e-07
-0.002690459
5.9277762e-08
-9.3654053e-08
8.762012e-07
-0.0031188538
6.3571313e-08
-9.8089878e-08
8.4866088e-07
-0.0035727223
6.9437823e-08
-1.0132179e-07
-0.082502419
9.8643557e-07
-1.3447006e-06
3.7231479e-06
-1.1718235e-06
-0.082507871
1.1109197e-06
-1.7183175e-06
7.2301343e-06
-1.1149855e-06
-0.0035727487
8.552423e-08
-1.1644856e-07
-1.0305209e-06
-0.0031189067
7.9821779e-08
-1.1187606e-07
-7.6641679e-07
-0.0026906968
7.7705276e-08
-1.0501509e-07
-0.0022007691
7.8528554e-08
-9.3602577e-08
9.1222823e-07
-0.0022017007
1.1208662e-07
-9.3809713e-08
1.3071378e-06
-0.0026910886
1.0690825e-07
-1.1055101e-07
1.5261484e-06
-0.0031191113
1.0645274e-07
-1.2132069e-07
1.7373982e-06
-0.0035729428
1.1112344e-07
-1.2841006e-07
-0.082517083
1.2099491e-06
-2.1838785e-06
1.192268e-05
-2.6214541e-06
-0.082530958
1.2554088e-06
-2.7273046e-06
1.7967743e-05
-2.1658048e-06
-0.0035734111
1.4191688e-07
-1.2942872e-07
-1.7267036e-06
-0.0031195709
1.3928292e-07
-1.1888285e-07
-1.1220883e-06
-0.0026917341
1.4491689e-07
-1.0430397e-07
-0.002202899
1.5942805e-07
-8.3159623e-08
1.4060636e-06
-0.0022044748
2.2364349e-07
-5.4125619e-08
2.3112794e-06
-0.002692759
2.0300389e-07
-8.350797e-08
3.0732562e-06
-0.0031204202
1.9207997e-07
-1.0499908e-07
3.8924216e-06
-0.0035743001
1.910693e-07
-1.2134613e-07
-0.082550589
1.3247178e-06
-3.409859e-06
2.5608298e-05
-5.6433692e-06
-0.082577263
1.4467033e-06
-4.2869915e-06
3.5157796e-05
-4.3274886e-06
-0.003575769
2.579039e-07
-1.0507038e-07
-3.1135098e-06
-0.0031218168
2.6298519e-07
-8.0541936e-08
-1.7891658e-06
-0.0026943109
2.7751802e-07
-5.0413292e-08
-0.0022065515
2.9867978e-07
-1.1154554e-08
2.2838714e-06
-0.0022092628
3.8152508e-07
4.4865034e-08
4.1616406e-06
-0.0026965461
3.6233745e-07
-5.4392371e-09
5.9841429e-06
-0.0031239388
3.4499881e-07
-4.5979254e-08
7.9591387e-06
-0.0035779979
3.3511512e-07
-8.1376723e-08
-0.082612338
1.5685527e-06
-5.405058e-06
4.686964e-05
-1.0954439e-05
-0.082657342
1.6310452e-06
-6.8044311e-06
6.1131623e-05
-8.1302999e-06
-0.0035811825
4.1342278e-07
-5.351707e-08
-5.5239523e-06
-0.0031269702
4.2866901e-07
-4.1472526e-09
-2.9242324e-06
-0.002699644
4.4908723e-07
4.782717e-08
-0.0022127597
4.6773677e-07
1.0493339e-07
3.7352471e-06
-0.0022172188
5.6054944e-07
1.6181137e-07
7.2550959e-06
-0.0027038051
5.4009212e-07
1.0053164e-07
1.0859876e-05
-0.003131128
5.1583519e-07
3.6558487e-08
1.4757179e-05
-0.003585545
4.9519443e-07
-3.0067571e-08
-0.082714293
1.7019797e-06
-8.5546231e-06
7.8559788e-05
-1.9543529e-05
-0.082785737
1.906007e-06
-1.0871946e-05
9.995299e-05
-1.4298644e-05
-0.0035913556
5.8578966e-07
-2.0733927e-08
-9.4324039e-06
-0.0031366735
6.1145698e-07
6.7147207e-08
-4.7536929e-06
-0.0027092726
6.3969584e-07
1.4763217e-07
-0.0022228532
6.6182577e-07
2.1885708e-07
6.0443077e-06
-0.0022299425
7.7524119e-07
2.6809133e-07
1.2193421e-05
-0.0027163514
7.4972652e-07
1.7905659e-07
1.866153e-05
-0.003143936
7.1722347e-07
7.6467336e-08
2.5611178e-05
-0.003598955
6.8715056e-07
-3.7517495e-08
-0.082875103
2.2284275e-06
-1.3918337e-05
0.00012666684
-3.3406386e-05
-0.082987273
2.7142284e-06
-1.7897721e-05
0.00016075876
-2.4277779e-05
-0.0036087919
8.0667193e-07
-9.890386e-08
-1.5765465e-05
-0.0031533342
8.4005366e-07
4.5206154e-08
-7.7190926e-06
-0.0027254511
8.7684798e-07
1.7515837e-07
-0.0022388599
9.0568801e-07
2.9254302e-07
9.9435395e-06
-0.0022501247
1.0559373e-06
2.6326308e-07
2.0500752e-05
-0.0027371485
1.0262564e-06
1.129241e-07
3.1706942e-05
-0.0031654807
9.8580615e-07
-4.6352917e-08
4.3676443e-05
-0.0036214911
9.5076985e-07
-2.2122842e-07
-0.083129332
3.529354e-06
-2.2787748e-05
0.00020499337
-5.7602301e-05
-0.08331099
5.0025188e-06
-2.8412067e-05
0.00026266933
-4.1810665e-05
-0.0036379854
1.0930098e-06
-3.9086625e-07
-2.6960567e-05
-0.0031812721
1.1247947e-06
-1.8413637e-07
-1.298215e-05
-0.0027522956
1.1617966e-06
5.5742108e-09
-0.0022644784
1.1963543e-06
1.7517534e-07
1.7183117e-05
-0.0022829966
1.3170534e-06
1.7003541e-08
3.5548942e-05
-0.0027717728
1.233284e-06
-1.2249126e-07
5.5022964e-05
-0.0032016113
1.1850259e-06
-3.2033992e-07
7.5631202e-05
-0.003659205
1.16788e-06
-5.5660541e-07
-0.083545823
6.9620205e-06
-3.4410344e-05
0.00033791241
-9.8578202e-05
-0.083863008
7.6029576e-06
-3.9161847e-05
0.0004473211
-7.1721311e-05
-0.0036864792
9.8114315e-07
-5.6481268e-07
-4.6422189e-05
-0.0032275797
9.9883607e-07
-3.307051e-07
-2.260479e-05
-0.0027965155
1.1123686e-06
-1.8954594e-07
-0.0023067503
1.3637169e-06
-2.1475908e-07
2.9894637e-05
-0.0023372421
1.0578791e-06
-4.6482084e-07
6.4220259e-05
-0.0028312788
3.7995181e-07
5.5834019e-08
0.00010141405
-0.0032649244
8.7253417e-08
6.2270806e-08
0.00014120656
-0.0037260757
-4.0051979e-10
-1.9567184e-07
-0.084311418
-6.4749177e-07
-4.4679126e-05
0.00063494323
-0.00023142824
-0.084793185
-2.359181e-05
-5.7636297e-05
0.00079442346
-0.00016526397
-0.0037900045
-2.2879518e-06
5.2219792e-08
-0.000102236
-0.0033263001
-2.1443359e-06
4.916831e-07
-4.4602876e-05
-0.002887987
-1.5274765e-06
6.0181537e-07
-0.0023815379
2.4558875e-07
-5.5273884e-07
6.5675296e-05
-0.002446099
-2.4513517e-06
1.3391857e-06
0.00014464446
-0.0029606493
-6.9999833e-06
6.9415597e-07
0.00023046461
-0.0034028035
-8.1312271e-06
-1.1845426e-06
0.00031863964
-0.003868437
-8.4909141e-06
-1.251354e-06
-0.084983216
-7.1216336e-05
-7.3801415e-05
0.00065368881
-0.0002372856
-0.085472198
-0.00035590404
0.00012485844
0.00095731521
-0.00019079973
-0.0038881688
-6.2267989e-06
-2.0522548e-05
-0.00014864648
-0.0034195843
-3.0847286e-06
-2.2282644e-05
-9.5551643e-05
-0.0029882952
-9.7420245e-07
-2.4463518e-05
-0.0025086696
-2.8846534e-06
-3.009633e-05
-0.00016527149
-0.0024068604
-4.2056754e-05
0.00010553747
-0.00032277073
-0.0028934157
-5.3475392e-05
0.00011610328
-0.00048627426
-0.0033186817
-6.3139906e-05
0.00012574686
-0.00066961633
-0.003766642
-7.3302658e-05
0.00013511836
-0.088098795
-0.0017359217
0.0020334706
0.0016594329
-1.5600575e-05
-0.07179118
-0.01473017
0.0029234631
-0.0044853065
-3.5834532e-05
-0.0031132306
-0.00080465549
0.00017147848
-4.9652309e-05
-0.0027486793
-0.00071353423
0.00015735007
-4.4966042e-05
-0.002408433
-0.00063108675
0.00014141884
-0.0020251941
-0.00054133954
0.00011470714
1.5870751e-05
0.0021206076
2.9473261e-05
0.0024991842
4.3779416e-05
0.0028213294
5.5715347e-05
0.0031566596
0.056213108
0.00059550061
0.070411872
-0.00013936054
-0.0084463885
0.00042010271
0.0037749902
-2.1380986e-05
0.00026202939
0.0033461776
-2.1262989e-05
0.00012111411
0.0029382106
-2.2499758e-05
0.0024687091
-2.6715808e-05
-0.00021806755
0.0025694033
7.5317828e-05
-0.00043389411
0.003033079
6.7483727e-05
-0.0006551284
0.0034399011
6.4371957e-05
-0.00089137536
0.0038742706
6.3664102e-05
0.067621026
0.00034111953
-0.0001775697
-4.7040611e-05
0.066852537
8.5192879e-05
0.00037443228
-4.7631051e-05
0.003848851
1.9783417e-05
-4.8832864e-05
0.0034171804
2.0837979e-05
-3.9603174e-05
0.0030023911
2.0484447e-05
0.0025094371
1.74784e-05
5.884079e-05
0.0024368833
1.126158e-05
0.00011843921
0.0029239395
1.1853241e-05
0.00018007441
0.0033360364
1.1377827e-05
0.00024397886
0.0037657908
1.0664981e-05
0.066702497
1.1183242e-05
0.00031161974
-0.00019295089
0.066312577
1.5244248e-05
0.00054403533
-0.00013914135
0.0037016605
8.032722e-06
-8.7006602e-05
0.0032732922
8.4650036e-06
-3.8384781e-05
0.0028649672
8.8229231e-06
0.0023898769
8.8672019e-06
2.7423326e-05
0.00235751
6.0011582e-06
5.7741193e-05
0.0028291526
5.8764138e-06
8.9791968e-05
0.0032357224
5.6060687e-06
0.00012352949
0.0036626302
5.2923595e-06
0.065953483
8.6397227e-06
0.00047333542
-8.971719e-05
0.065706437
4.589369e-06
0.00033977677
-6.6280863e-05
0.0036367786
3.3962827e-06
-4.3776479e-05
0.0032106022
3.6145194e-06
-2.193886e-05
0.0028046043
3.8227511e-06
0.0023329805
3.9543955e-06
1.7270322e-05
0.002314375
2.6523253e-06
3.4760055e-05