/*--------------------------------*- C++ -*----------------------------------*\
  =========                 |
  \\      /  F ield         | OpenFOAM: The Open Source CFD Toolbox
   \\    /   O peration     | Website:  https://openfoam.org
    \\  /    A nd           | Version:  7
     \\/     M anipulation  |
\*---------------------------------------------------------------------------*/
FoamFile
{
    version     2.0;
    format      ascii;
    class       volScalarField;
    location    "230";
    object      T;
}
// * * * * * * * * * * * * * * * * * * * * * * * * * * * * * * * * * * * * * //

dimensions      [0 0 0 1 0 0 0];

internalField   nonuniform List<scalar> 
24789
(
299.92703
299.92457
299.92371
299.92393
299.92631
299.9311
299.92934
299.92925
299.93037
299.93327
299.94021
299.93685
299.93545
299.93536
299.93627
299.942
299.9421
299.9424
299.94412
299.94799
299.9565
299.95213
299.95008
299.94956
299.94831
299.95521
299.95776
299.95855
299.96098
299.96593
299.97617
299.97062
299.96781
299.96673
299.96269
299.97078
299.9765
299.97792
299.98119
299.9874
299.99956
299.99265
299.9889
299.98712
299.97946
299.98875
299.99863
300.00085
300.00516
300.01287
300.02731
300.01873
300.01381
300.0111
299.99866
300.00915
300.0246
300.02791
300.03355
300.04317
300.06051
300.04971
300.04323
300.03924
300.02023
300.03185
300.05517
300.06
300.0675
300.07974
300.10093
300.08702
300.07831
300.07247
300.04395
300.05643
300.09129
300.09837
300.10854
300.12447
300.15035
300.13209
300.12021
300.11166
300.06919
300.08205
300.13354
300.14384
300.15774
300.1787
300.20938
300.18538
300.16916
300.15684
300.09483
300.10713
300.18131
300.19599
300.21486
300.24233
300.27713
300.24588
300.22404
300.20672
300.11871
300.1294
300.23272
300.25298
300.27807
300.31343
300.35039
300.31075
300.28218
300.25877
300.13889
300.14679
300.28412
300.31086
300.34306
300.38718
300.42252
300.37388
300.33798
300.30784
300.15265
300.15574
300.32861
300.36211
300.40167
300.45476
300.48115
300.42404
300.3811
300.34445
300.15506
300.14953
300.35282
300.39212
300.43782
300.49794
300.49708
300.43683
300.39008
300.34922
300.13627
300.1128
300.33018
300.37071
300.41478
300.46729
300.39827
300.36706
300.33112
300.29386
300.08504
300.01407
300.17731
300.20606
300.23201
300.2409
299.88457
299.87821
299.87011
299.8633
299.83381
299.74875
299.7596
299.76346
299.77013
299.7803
299.81988
299.80329
299.79325
299.78545
299.74613
299.71402
299.70745
299.70702
299.70929
299.71426
299.71669
299.69923
299.69634
299.69766
299.69184
299.71057
299.70954
299.70952
299.71475
299.73588
299.8198
299.79239
299.78322
299.77916
299.7507
299.76228
299.7837
299.78923
299.79907
299.81312
300.00273
299.98619
299.96716
299.95008
299.8558
300.0139
300.21873
300.25026
300.27987
300.29879
300.43533
300.40009
300.36249
300.32473
300.0814
300.10974
300.36234
300.4029
300.44659
300.49786
300.53227
300.47184
300.42501
300.38378
300.13341
300.14732
300.38826
300.42796
300.47318
300.52935
300.51661
300.46073
300.41755
300.38009
300.15309
300.15414
300.36417
300.39895
300.43951
300.49275
300.46175
300.41206
300.37461
300.34284
300.15138
300.14575
300.31795
300.34662
300.3808
300.42669
300.38921
300.34724
300.31641
300.29089
300.13792
300.12846
300.26267
300.28516
300.31274
300.35083
300.31226
300.27803
300.25364
300.23408
300.1177
300.10596
300.20573
300.22259
300.24403
300.27462
300.23823
300.21116
300.19252
300.17819
300.09361
300.08092
300.15188
300.164
300.18014
300.20399
300.172
300.15116
300.13732
300.1272
300.06812
300.05538
300.10424
300.11269
300.12458
300.14281
300.1162
300.10033
300.09018
300.0832
300.04291
300.03083
300.06395
300.06977
300.07852
300.09242
300.07093
300.05875
300.05125
300.04646
300.01927
300.00825
300.03049
300.03448
300.04101
300.0518
300.03442
300.02487
300.01923
300.01596
299.99783
299.98799
300.00262
300.00533
300.01028
300.01883
300.00451
299.9969
299.99262
299.99043
299.97876
299.97017
299.97923
299.98102
299.98477
299.9916
299.97969
299.97361
299.97038
299.969
299.96214
299.95474
299.95963
299.96071
299.96351
299.96895
299.95905
299.95424
299.95188
299.95111
299.94792
299.94169
299.94337
299.9439
299.94592
299.95018
299.94206
299.93835
299.93669
299.93641
299.93604
299.93093
299.93016
299.93026
299.93164
299.93486
299.92846
299.92571
299.92463
299.92469
299.92631
299.93018
299.92937
299.92945
299.93077
299.93391
299.94114
299.93754
299.93594
299.93569
299.93557
299.94124
299.94262
299.9431
299.94504
299.94918
299.95799
299.95331
299.95101
299.95029
299.94744
299.95422
299.95874
299.95976
299.96246
299.96775
299.97838
299.97245
299.96931
299.96799
299.96157
299.9695
299.97811
299.9798
299.98343
299.99008
300.00281
299.99538
299.99122
299.98912
299.97802
299.98712
300.00114
300.00374
300.00853
300.01686
300.03223
300.0229
300.0174
300.01424
299.99682
300.0071
300.02857
300.03242
300.03876
300.04929
300.06814
300.05623
300.0489
300.04425
300.01796
300.02935
300.06148
300.06712
300.07564
300.08924
300.11267
300.09712
300.08717
300.08037
300.0412
300.05343
300.10107
300.1093
300.12093
300.13879
300.16745
300.14701
300.13345
300.12356
300.0659
300.07846
300.14773
300.15955
300.17532
300.19865
300.23197
300.20553
300.18733
300.17335
300.09088
300.10297
300.20009
300.21648
300.23735
300.26713
300.30345
300.27019
300.24648
300.2275
300.11442
300.12491
300.25508
300.27685
300.30358
300.3405
300.37746
300.33679
300.30694
300.28225
300.1341
300.1417
300.30837
300.33606
300.36912
300.4136
300.44765
300.39942
300.36315
300.33245
300.14709
300.14971
300.35326
300.38689
300.42619
300.47793
300.5013
300.44704
300.40517
300.36889
300.14847
300.14254
300.37697
300.41545
300.45927
300.5136
300.51624
300.45787
300.41254
300.3726
300.12885
300.10436
300.3505
300.38963
300.43143
300.48013
300.41527
300.38363
300.34882
300.31258
300.07367
300.01119
300.21392
300.2445
300.27218
300.2833
299.99735
299.98087
299.96197
299.94542
299.85882
299.70007
299.66685
299.66454
299.66879
299.68941
299.91665
299.88185
299.86313
299.85051
299.76739
299.788
299.89563
299.91081
299.92997
299.96033
299.69835
299.68163
299.68072
299.68665
299.72617
299.82034
299.97621
300.00387
300.03798
300.08485
299.89911
299.85604
299.8357
299.82359
299.75559
299.69589
299.65664
299.65292
299.65469
299.66969
299.95737
299.94544
299.93168
299.92002
299.86961
300.02875
300.20258
300.23249
300.25995
300.2705
300.41382
300.37775
300.34002
300.30207
300.08609
300.11368
300.33452
300.37543
300.42066
300.47648
300.50046
300.43859
300.39146
300.35086
300.13718
300.15009
300.35136
300.38975
300.43489
300.49524
300.47418
300.41797
300.37624
300.34094
300.15557
300.15639
300.32404
300.35595
300.39391
300.44532
300.41209
300.36556
300.33144
300.30297
300.15331
300.14741
300.27951
300.30467
300.33511
300.37699
300.34116
300.30368
300.27673
300.25472
300.13924
300.12941
300.22936
300.24848
300.27222
300.30568
300.27084
300.24114
300.2204
300.20398
300.11833
300.10642
300.17905
300.19305
300.21112
300.23741
300.20545
300.18232
300.16673
300.15493
300.0939
300.08109
300.1319
300.14181
300.15527
300.1756
300.14775
300.12997
300.11845
300.11022
300.06818
300.0554
300.08996
300.09681
300.10673
300.12233
300.09901
300.08535
300.07685
300.07121
300.04288
300.03079
300.05394
300.05863
300.066
300.07806
300.05893
300.04827
300.04192
300.03806
300.01918
300.00813
300.02344
300.02665
300.03221
300.04174
300.02592
300.01741
300.01259
300.00998
299.99768
299.98783
299.99754
299.99969
300.00394
300.0116
299.99833
299.99147
299.9878
299.9861
299.9786
299.96994
299.97551
299.97687
299.9801
299.98628
299.97507
299.96957
299.96681
299.9658
299.96192
299.95448
299.95687
299.95761
299.96
299.96494
299.95554
299.95119
299.94918
299.94872
299.94763
299.94136
299.94128
299.94155
299.94324
299.94709
299.93933
299.936
299.93463
299.93459
299.93562
299.93016
299.92844
299.92836
299.92948
299.93239
299.93245
299.9296
299.92852
299.92862
299.93043
299.9358
299.93471
299.93477
299.93614
299.93945
299.9471
299.94331
299.94165
299.9414
299.94152
299.9478
299.94879
299.94928
299.95128
299.9556
299.96483
299.95998
299.95762
299.9569
299.95464
299.96205
299.96575
299.96678
299.96953
299.975
299.986
299.97991
299.97672
299.97539
299.97005
299.97863
299.98585
299.98757
299.99124
299.99806
300.01113
300.00355
299.99935
299.99721
299.98781
299.99759
300.00951
300.01215
300.01697
300.02544
300.041
300.03155
300.02603
300.02283
300.00797
300.01891
300.03726
300.04116
300.04752
300.05817
300.07707
300.06503
300.05768
300.05298
300.0304
300.04235
300.07004
300.07576
300.08432
300.09806
300.12122
300.10552
300.09553
300.08862
300.05469
300.06727
300.10868
300.11707
300.12876
300.14679
300.17466
300.15401
300.14034
300.13025
300.07998
300.0926
300.15317
300.16526
300.18122
300.2049
300.2372
300.21016
300.19161
300.17723
300.10479
300.11622
300.20214
300.21913
300.24061
300.2714
300.30693
300.27214
300.24749
300.22764
300.12678
300.13616
300.2531
300.27605
300.30411
300.34315
300.37912
300.33569
300.30407
300.27789
300.14401
300.14984
300.30106
300.33057
300.36582
300.41373
300.44503
300.39282
300.35403
300.32126
300.15294
300.15233
300.33644
300.37225
300.41429
300.47038
300.48585
300.42696
300.38235
300.34406
300.14693
300.13397
300.33954
300.3792
300.4247
300.48359
300.45216
300.40071
300.35808
300.31897
300.11063
300.08273
300.28111
300.31655
300.35117
300.38205
300.2266
300.21814
300.19425
300.16761
300.01592
299.8324
299.86177
299.86897
299.87743
299.88409
299.69922
299.68506
299.68209
299.68442
299.71249
299.7553
299.80625
299.81544
299.82782
299.84613
299.76986
299.76208
299.75751
299.75607
299.7392
299.69748
299.65732
299.64755
299.64372
299.66412
299.74003
299.66438
299.64286
299.62177
299.59949
299.9028
299.8863
299.86602
299.84997
299.78187
299.8073
299.84236
299.84628
299.84731
299.83241
299.96267
299.94651
299.92835
299.91149
299.80937
299.81072
299.92458
299.94348
299.9677
300.00741
299.82681
299.79514
299.7829
299.77739
299.74845
299.71756
299.69088
299.68908
299.69278
299.70862
299.9413
299.93733
299.92735
299.91714
299.86814
300.02898
300.19092
300.21815
300.24168
300.24744
300.38861
300.35853
300.3247
300.28978
300.08832
300.11547
300.32316
300.36119
300.40251
300.45208
300.47902
300.42286
300.37924
300.34116
300.13867
300.15147
300.34359
300.37992
300.42221
300.47792
300.46081
300.40821
300.36871
300.335
300.15679
300.15756
300.31977
300.35047
300.38673
300.43541
300.40498
300.36048
300.32763
300.30006
300.15444
300.14848
300.27763
300.30213
300.33165
300.37204
300.33783
300.30141
300.27514
300.2536
300.14024
300.13036
300.2288
300.24758
300.27084
300.30353
300.26955
300.24041
300.22001
300.20384
300.11925
300.10728
300.17919
300.19303
300.21086
300.23675
300.20524
300.18238
300.16695
300.15526
300.09469
300.08181
300.13237
300.14221
300.15557
300.17571
300.14807
300.13042
300.11896
300.11076
300.06884
300.056
300.09055
300.09739
300.10729
300.12282
300.0996
300.08596
300.07747
300.07182
300.04341
300.03126
300.05455
300.05926
300.06664
300.0787
300.05959
300.04891
300.04253
300.03865
300.0196
300.00849
300.02399
300.02723
300.03283
300.04239
300.02653
300.01798
300.01312
300.01048
299.99799
299.98809
299.99799
300.00017
300.00445
300.01216
299.99882
299.99192
299.98821
299.98648
299.97883
299.97017
299.97588
299.97726
299.98051
299.98673
299.97549
299.96994
299.96716
299.96613
299.96213
299.95467
299.95718
299.95795
299.96036
299.96533
299.9559
299.95152
299.94949
299.949
299.94781
299.94151
299.94156
299.94184
299.94355
299.94743
299.93965
299.93628
299.9349
299.93483
299.93577
299.93028
299.92866
299.92859
299.92974
299.93268
299.93459
299.93142
299.93007
299.92997
299.93067
299.93595
299.93631
299.9366
299.93826
299.94194
299.95
299.9458
299.94381
299.9433
299.94164
299.94789
299.95106
299.95184
299.95421
299.95899
299.9688
299.96342
299.96065
299.95959
299.95472
299.96212
299.96897
299.97037
299.9736
299.97966
299.99148
299.9847
299.98098
299.97921
299.97012
299.97872
299.9904
299.99262
299.99691
300.00451
300.01874
300.01024
300.00532
300.00261
299.98792
299.99774
300.01594
300.01925
300.02492
300.03447
300.05175
300.04101
300.0345
300.03051
300.00816
300.01916
300.04644
300.05128
300.05881
300.071
300.09237
300.07851
300.06977
300.06395
300.0307
300.04272
300.08315
300.09018
300.10038
300.11627
300.14277
300.12457
300.11267
300.1042
300.05513
300.06781
300.12711
300.1373
300.15119
300.17206
300.20388
300.18007
300.16392
300.15178
300.08058
300.09325
300.17799
300.19239
300.21106
300.23812
300.2742
300.24372
300.2223
300.20545
300.10556
300.11727
300.23363
300.2532
300.27757
300.31171
300.34989
300.31199
300.2845
300.26206
300.12797
300.1374
300.29009
300.31557
300.34631
300.38809
300.42526
300.37962
300.34558
300.31701
300.14516
300.15077
300.34177
300.37344
300.41073
300.46015
300.49063
300.43785
300.39756
300.36295
300.15345
300.15234
300.37861
300.41584
300.45857
300.51338
300.52514
300.4704
300.42581
300.38644
300.14648
300.13278
300.38139
300.42209
300.46803
300.52676
300.48879
300.44034
300.39816
300.35846
300.10862
300.07977
300.31963
300.35622
300.39164
300.4231
300.28586
300.27293
300.24551
300.21529
300.01644
299.85319
299.9416
299.9571
299.97365
299.98754
299.76578
299.74245
299.73427
299.73225
299.74046
299.7471
299.77324
299.77993
299.79423
299.82653
299.79592
299.76839
299.76083
299.75899
299.74375
299.7588
299.85404
299.86932
299.88736
299.91173
299.64105
299.6496
299.65954
299.67029
299.72577
299.7446
299.76085
299.76509
299.77134
299.78131
299.78252
299.76796
299.76107
299.75794
299.74366
299.82137
299.8524
299.8596
299.86723
299.8722
300.23488
300.22668
300.2007
300.17251
300.01372
300.08435
300.29169
300.32865
300.36423
300.3952
300.46604
300.41365
300.36973
300.32926
300.11253
300.13619
300.34967
300.39063
300.43748
300.49776
300.49978
300.43937
300.39341
300.35389
300.14936
300.15484
300.34568
300.38264
300.42596
300.48357
300.4571
300.40348
300.36355
300.32977
300.15549
300.15242
300.30879
300.33918
300.37544
300.42461
300.38874
300.34421
300.31175
300.28483
300.14658
300.13871
300.25924
300.28281
300.31159
300.35159
300.31416
300.27859
300.25337
300.23303
300.12925
300.11858
300.20687
300.22427
300.24623
300.27768
300.24258
300.21501
300.19609
300.18139
300.10701
300.09473
300.15683
300.1692
300.18548
300.20961
300.17873
300.15772
300.14381
300.13351
300.08196
300.06911
300.11159
300.12016
300.13209
300.15043
300.12443
300.10846
300.0983
300.09124
300.05638
300.04392
300.07241
300.07827
300.08701
300.10101
300.0797
300.06744
300.05995
300.05513
300.03184
300.02023
300.0392
300.04321
300.04973
300.0606
300.04315
300.0335
300.02787
300.02459
300.00916
299.99867
300.01106
300.01379
300.01875
300.02741
300.01286
300.00511
300.00081
299.99861
299.98877
299.97949
299.98707
299.98887
299.99265
299.99964
299.98737
299.98113
299.97787
299.97648
299.9708
299.96271
299.96667
299.96776
299.97061
299.97622
299.96587
299.9609
299.95849
299.95772
299.95522
299.94832
299.94949
299.95002
299.95209
299.95652
299.9479
299.94402
299.94232
299.94205
299.942
299.93627
299.9353
299.93539
299.9368
299.9402
299.93316
299.93025
299.92914
299.92924
299.93102
299.93043
299.92851
299.9284
299.92948
299.93232
299.93926
299.93599
299.93465
299.93461
299.93579
299.94151
299.94126
299.94151
299.94316
299.94694
299.95535
299.95108
299.94911
299.94866
299.94778
299.95462
299.95672
299.95743
299.95976
299.9646
299.97464
299.96924
299.96654
299.96556
299.96203
299.97001
299.97512
299.97643
299.97957
299.98562
299.9975
299.99079
299.9872
299.98555
299.97858
299.98774
299.99677
299.99886
300.00298
300.01047
300.02454
300.01624
300.01153
300.009
299.99749
300.00783
300.02215
300.02526
300.03065
300.03994
300.05676
300.04638
300.0402
300.03646
300.01873
300.03018
300.05191
300.05645
300.06359
300.07533
300.09576
300.08246
300.07419
300.06872
300.04206
300.05431
300.08687
300.0935
300.10313
300.11832
300.143
300.12568
300.11447
300.10648
300.06681
300.07938
300.12741
300.13702
300.15009
300.16988
300.19877
300.17625
300.16108
300.14961
300.09185
300.10396
300.17277
300.18637
300.20394
300.22957
300.26187
300.23288
300.21265
300.19666
300.11525
300.12565
300.22092
300.23957
300.26272
300.29538
300.32942
300.2929
300.26662
300.24513
300.13485
300.1425
300.26864
300.29317
300.32274
300.36334
300.39602
300.35129
300.31833
300.29069
300.14813
300.15106
300.30996
300.34071
300.37704
300.42587
300.45037
300.39778
300.3583
300.32462
300.1503
300.14483
300.33219
300.36839
300.41052
300.46614
300.466
300.40955
300.36612
300.32832
300.13169
300.10803
300.3092
300.34695
300.38835
300.4393
300.37735
300.34452
300.30964
300.27441
300.07809
300.01038
300.17133
300.20019
300.22708
300.23782
299.91643
299.9055
299.89308
299.88239
299.83676
299.68896
299.66303
299.66023
299.66207
299.67696
299.89823
299.87617
299.85866
299.84424
299.7616
299.77937
299.85299
299.86431
299.87578
299.88205
299.8169
299.84664
299.81227
299.71802
299.66777
299.66096
299.65954
299.67183
299.88355
299.84127
299.82308
299.81305
299.75161
299.68221
299.68132
299.68755
299.69895
299.74406
299.78786
299.78931
299.78882
299.78688
299.77919
299.78732
299.80763
299.81118
299.80951
299.79223
299.7893
299.89013
299.91652
299.9526
300.00815
299.82445
299.81744
299.86965
299.86008
299.99453
299.99591
299.99174
299.99452
299.99265
299.99117
299.99187
299.99319
299.93253
299.92965
299.92853
299.9286
299.93018
299.93569
299.93483
299.93492
299.93631
299.93967
299.94741
299.94357
299.94187
299.94159
299.94146
299.94778
299.9491
299.94962
299.95166
299.95604
299.96542
299.96049
299.95808
299.95731
299.95467
299.96215
299.96632
299.96739
299.9702
299.97574
299.9869
299.98073
299.97748
299.97609
299.97022
299.9789
299.98673
299.98849
299.99222
299.99911
300.01232
300.00467
300.0004
299.99822
299.98819
299.99809
300.01071
300.01338
300.01826
300.02678
300.04247
300.03298
300.02742
300.02418
300.00859
300.01969
300.03882
300.04272
300.04909
300.05972
300.07862
300.06667
300.05935
300.05466
300.03136
300.04354
300.07188
300.07753
300.08599
300.09954
300.12249
300.10713
300.09732
300.09054
300.05614
300.06903
300.11066
300.11881
300.13019
300.14769
300.17498
300.15509
300.1419
300.13216
300.08204
300.09498
300.15492
300.16649
300.18175
300.20433
300.23531
300.20983
300.19227
300.17863
300.1076
300.11965
300.203
300.21894
300.23902
300.26768
300.30078
300.26878
300.24597
300.22755
300.13078
300.14068
300.25177
300.27287
300.29856
300.33412
300.36688
300.32764
300.29891
300.27502
300.14891
300.15493
300.29645
300.32322
300.35507
300.3981
300.4262
300.37943
300.34449
300.31485
300.15796
300.15731
300.32855
300.36088
300.39871
300.44896
300.4629
300.41003
300.36984
300.33524
300.15197
300.13901
300.33072
300.36667
300.40771
300.46047
300.43053
300.38541
300.34716
300.31159
300.11618
300.09047
300.2775
300.30989
300.34077
300.36571
300.21514
300.21101
300.1904
300.16607
300.02093
299.84506
299.87622
299.88286
299.88978
299.89301
299.82136
299.80811
299.79961
299.79416
299.76589
299.74583
299.76629
299.7707
299.7803
299.80232
299.81971
299.76932
299.75697
299.75468
299.73507
299.90387
299.91727
299.92666
299.89682
300.09791
300.1106
300.07203
300.03659
299.81537
299.79749
299.83596
299.84621
299.85657
299.85597
300.11342
300.07014
300.03065
299.99412
299.83398
299.8498
300.04988
300.0812
300.11016
300.14271
299.82155
299.77096
299.75842
299.7559
299.73499
299.74625
299.76665
299.77099
299.78044
299.80202
299.82101
299.80794
299.79958
299.79425
299.76639
299.84541
299.87604
299.88256
299.88936
299.89249
300.21442
300.21044
300.19001
300.16585
300.0215
300.09107
300.27743
300.30968
300.34042
300.36517
300.42984
300.38489
300.34679
300.31138
300.11672
300.13955
300.33053
300.36634
300.40723
300.45982
300.46232
300.40961
300.36957
300.33511
300.15251
300.15783
300.32851
300.36074
300.39846
300.44856
300.42594
300.37928
300.34445
300.3149
300.15842
300.15536
300.2966
300.32332
300.35511
300.39806
300.36699
300.3278
300.29912
300.27527
300.14931
300.14107
300.25209
300.27317
300.29888
300.33443
300.30116
300.26914
300.24634
300.22793
300.13114
300.12002
300.20344
300.2194
300.23952
300.26822
300.23591
300.21038
300.1928
300.17915
300.10797
300.09534
300.15542
300.16704
300.18237
300.20503
300.17564
300.15567
300.14244
300.13268
300.08236
300.06931
300.11111
300.1193
300.13076
300.14837
300.12305
300.10759
300.09775
300.09094
300.05638
300.04373
300.07217
300.07786
300.08639
300.10005
300.07898
300.06693
300.05958
300.05488
300.03149
300.01978
300.03893
300.04286
300.04929
300.06002
300.04262
300.03307
300.02749
300.02426
300.00865
299.99812
300.01071
300.0134
300.01831
300.02691
300.01237
300.00467
300.0004
299.99822
299.98819
299.97888
299.98667
299.98845
299.99222
299.99917
299.9869
299.98068
299.97743
299.97605
299.9702
299.96214
299.96627
299.96734
299.97018
299.97577
299.96545
299.96048
299.95807
299.95731
299.95469
299.94782
299.94912
299.94965
299.95172
299.95614
299.94755
299.94367
299.94196
299.94168
299.94154
299.93583
299.93496
299.93506
299.93648
299.93989
299.9329
299.92999
299.92887
299.92896
299.93071
299.92606
299.92366
299.92345
299.92435
299.92685
299.93065
299.92889
299.9288
299.9299
299.93279
299.93976
299.93644
299.93506
299.93499
299.93597
299.94171
299.94173
299.94201
299.9437
299.94754
299.95603
299.95169
299.94966
299.94916
299.948
299.95487
299.95734
299.95811
299.9605
299.96543
299.97561
299.9701
299.96731
299.96625
299.96231
299.97033
299.97597
299.97737
299.9806
299.98678
299.99887
299.99199
299.98827
299.98651
299.97895
299.98817
299.99794
300.00014
300.00442
300.0121
300.02643
300.01789
300.01301
300.01032
299.99799
300.00841
300.02372
300.027
300.0326
300.04216
300.05933
300.04861
300.04218
300.03822
300.01938
300.0309
300.05399
300.05878
300.06622
300.07837
300.0994
300.08558
300.07694
300.07115
300.04288
300.05527
300.08984
300.09686
300.10695
300.1228
300.14858
300.13041
300.11859
300.1101
300.06792
300.08072
300.13193
300.14217
300.15601
300.1769
300.20759
300.18364
300.16746
300.15519
300.09342
300.10563
300.17967
300.19432
300.21317
300.24064
300.27564
300.24433
300.22247
300.20514
300.11712
300.12774
300.23127
300.25157
300.27675
300.31226
300.34969
300.30977
300.28104
300.25752
300.13713
300.14497
300.28314
300.31006
300.34251
300.38702
300.42292
300.37377
300.33753
300.30715
300.15072
300.15377
300.32814
300.36195
300.40189
300.45553
300.482
300.42438
300.38105
300.34409
300.15303
300.14755
300.35224
300.39178
300.43776
300.49816
300.49589
300.43568
300.38886
300.3479
300.13421
300.11058
300.32725
300.36767
300.41149
300.46373
300.392
300.36121
300.32576
300.28892
300.08201
300.01129
300.16857
300.19644
300.22212
300.23026
299.8649
299.8606
299.85369
299.84705
299.81854
299.73974
299.75148
299.75387
299.75953
299.77128
299.77023
299.76196
299.75711
299.75378
299.74158
299.7204
299.66214
299.65083
299.64001
299.62775
299.88768
299.86714
299.85164
299.8383
299.75135
299.73758
299.742
299.74209
299.7474
299.77136
299.96814
299.93478
299.91475
299.89922
299.80119
299.812
299.95446
299.97897
300.00958
300.05333
299.951
299.92228
299.9039
299.88919
299.78472
299.77793
299.85642
299.86821
299.87951
299.88348
299.79202
299.78099
299.77402
299.77033
299.74204
299.72091
299.684
299.67945
299.68046
299.6954
299.90673
299.86082
299.83971
299.82717
299.75456
299.75649
299.79628
299.80629
299.82369
299.86032
299.84565
299.82317
299.81032
299.80176
299.76696
299.84357
299.88508
299.89359
299.9045
299.91589
300.23247
300.22358
300.20005
300.17395
300.02106
300.09085
300.28392
300.3176
300.35001
300.37757
300.43863
300.39188
300.35257
300.31615
300.11662
300.13962
300.33408
300.37061
300.41237
300.46618
300.46672
300.41316
300.37252
300.33756
300.15254
300.15781
300.33009
300.36265
300.40077
300.45144
300.4277
300.38068
300.34559
300.31583
300.15833
300.15519
300.29708
300.32393
300.35587
300.39905
300.36745
300.32813
300.29936
300.27543
300.14905
300.14074
300.25204
300.27318
300.29894
300.33457
300.3011
300.26903
300.24619
300.22774
300.13074
300.11957
300.20316
300.21915
300.2393
300.26804
300.23565
300.21008
300.19248
300.1788
300.10749
300.09485
300.15505
300.16669
300.18203
300.20473
300.17529
300.15529
300.14204
300.13226
300.08186
300.06883
300.11071
300.11891
300.13037
300.148
300.12266
300.10718
300.09733
300.09052
300.05592
300.0433
300.07178
300.07746
300.08599
300.09965
300.07859
300.06655
300.0592
300.0545
300.03111
300.01942
300.03858
300.0425
300.04892
300.05965
300.04227
300.03272
300.02714
300.02392
300.00831
299.99781
300.01039
300.01307
300.01798
300.02658
300.01204
300.00434
300.00008
299.9979
299.98789
299.97862
299.9864
299.98817
299.99193
299.99887
299.98661
299.9804
299.97716
299.97579
299.96997
299.96193
299.96604
299.96711
299.96993
299.97551
299.96521
299.96026
299.95785
299.9571
299.9545
299.94763
299.94892
299.94944
299.9515
299.95592
299.94733
299.94347
299.94176
299.94149
299.94137
299.93569
299.93479
299.93489
299.9363
299.93969
299.93271
299.92981
299.9287
299.9288
299.93058
299.92593
299.92345
299.92322
299.92409
299.92658
299.93013
299.92849
299.92843
299.92955
299.93245
299.93949
299.93616
299.93477
299.9347
299.93563
299.94138
299.94144
299.94173
299.94343
299.94728
299.95582
299.95146
299.94943
299.94893
299.9477
299.95457
299.95713
299.9579
299.96031
299.96524
299.97547
299.96996
299.96716
299.96611
299.96203
299.9701
299.97587
299.97726
299.9805
299.98669
299.99883
299.99196
299.98824
299.98649
299.97876
299.98803
299.99798
300.00017
300.00444
300.01211
300.02652
300.018
300.01313
300.01046
299.99791
300.00841
300.02396
300.02721
300.03279
300.04231
300.05954
300.0489
300.04252
300.03862
300.01951
300.03118
300.05449
300.0592
300.06655
300.07854
300.09939
300.08585
300.07738
300.07173
300.04337
300.05597
300.09038
300.09719
300.10701
300.12241
300.1475
300.13003
300.11865
300.11051
300.06885
300.08187
300.13196
300.1417
300.15489
300.17478
300.20397
300.18145
300.16621
300.15466
300.0948
300.10743
300.17832
300.19194
300.20946
300.2349
300.26704
300.2385
300.21848
300.2026
300.11946
300.13061
300.22705
300.24543
300.26815
300.30003
300.33315
300.29777
300.27219
300.25119
300.14051
300.14878
300.27437
300.29816
300.32675
300.36581
300.39686
300.35406
300.32238
300.29573
300.15478
300.15786
300.31412
300.34364
300.37842
300.42499
300.44782
300.39777
300.36008
300.32784
300.15714
300.15179
300.33469
300.36923
300.40934
300.46208
300.46009
300.40734
300.3663
300.33034
300.13864
300.11555
300.31136
300.34705
300.38546
300.4309
300.36777
300.34174
300.31042
300.27767
300.08927
300.01935
300.16664
300.19153
300.21354
300.22092
299.90205
299.89268
299.88372
299.8767
299.84153
299.76498
299.79282
299.80008
299.81136
299.8301
299.83989
299.80674
299.79184
299.78391
299.75416
299.76418
299.77908
299.78262
299.78891
299.80203
299.81638
299.79979
299.78981
299.78313
299.75336
299.8484
299.92209
299.93575
299.95116
299.96547
300.27955
300.26441
300.23715
300.20738
300.01228
300.08043
300.32112
300.35821
300.39454
300.42604
300.49383
300.44443
300.40143
300.36113
300.10886
300.13269
300.38433
300.42573
300.47269
300.53319
300.53188
300.47546
300.42983
300.38973
300.14637
300.1521
300.38197
300.41994
300.46368
300.52006
300.49704
300.44275
300.4015
300.36617
300.15302
300.15018
300.34474
300.37709
300.41529
300.46608
300.43054
300.38366
300.34882
300.31963
300.14445
300.13658
300.29222
300.31825
300.34973
300.39262
300.35354
300.31469
300.28659
300.26369
300.12709
300.11639
300.23478
300.25473
300.27963
300.31458
300.27628
300.24514
300.22332
300.20618
300.10467
300.09234
300.17834
300.19297
300.21199
300.23959
300.20477
300.18054
300.16415
300.15185
300.07967
300.06692
300.12693
300.13725
300.15136
300.17258
300.14292
300.12446
300.11242
300.10387
300.05427
300.04187
300.08266
300.08977
300.1001
300.11621
300.09207
300.07806
300.06925
300.06339
300.02989
300.01838
300.04581
300.05067
300.05828
300.0706
300.05122
300.04038
300.03385
300.02986
300.00744
299.99708
300.01526
300.01858
300.02428
300.03391
300.01812
300.00958
300.00466
300.00197
299.98734
299.97821
299.98977
299.99198
299.99628
300.00393
299.99089
299.98409
299.98038
299.97864
299.96965
299.9617
299.96842
299.96981
299.97304
299.97913
299.96829
299.96289
299.96014
299.95911
299.95435
299.94757
299.9506
299.95136
299.95373
299.95854
299.94956
299.94534
299.94337
299.94288
299.94133
299.93563
299.93589
299.93618
299.93784
299.94154
299.93417
299.93097
299.92963
299.92954
299.93024
299.93037
299.9297
299.92981
299.93116
299.93434
299.94169
299.93803
299.93639
299.93611
299.9358
299.94152
299.94312
299.94364
299.94563
299.94983
299.95878
299.95402
299.95167
299.95091
299.94778
299.95461
299.95945
299.96052
299.96329
299.96867
299.97945
299.97342
299.97021
299.96883
299.96201
299.97001
299.97905
299.98083
299.98455
299.99132
300.00425
299.99669
299.99242
299.99023
299.97861
299.9878
300.00238
300.00508
300.00999
300.01847
300.03403
300.02455
300.01893
300.01566
299.99759
300.00797
300.03012
300.03409
300.04056
300.05125
300.07028
300.0582
300.05074
300.04596
300.01893
300.03043
300.06334
300.06912
300.07779
300.09157
300.11528
300.09953
300.08942
300.08246
300.04242
300.05481
300.10343
300.11183
300.12366
300.14177
300.17099
300.15023
300.13643
300.12633
300.06747
300.08025
300.15103
300.16312
300.1792
300.20298
300.23736
300.21033
300.1917
300.17737
300.09292
300.10527
300.20501
300.22187
300.24331
300.27389
300.31183
300.27755
300.25311
300.23352
300.11702
300.12778
300.26228
300.28483
300.31247
300.35064
300.38941
300.34729
300.31634
300.29072
300.13724
300.14508
300.31802
300.34682
300.38115
300.42724
300.46274
300.41279
300.37514
300.34318
300.15071
300.1535
300.3648
300.3998
300.4406
300.49414
300.5186
300.46226
300.41876
300.38102
300.15247
300.14675
300.3895
300.42951
300.47506
300.53169
300.53497
300.47412
300.42691
300.38535
300.13292
300.10937
300.36422
300.40515
300.44925
300.50101
300.43871
300.40303
300.36501
300.32687
300.08115
300.01365
300.2207
300.2526
300.2826
300.30194
300.00597
299.98897
299.96953
299.95206
299.85565
299.76152
299.78449
299.79042
299.80072
299.81551
299.82313
299.79509
299.78549
299.78114
299.75063
299.70978
299.71097
299.71136
299.71707
299.73903
299.72027
299.7009
299.69775
299.6988
299.69078
299.71259