/*--------------------------------*- C++ -*----------------------------------*\
  =========                 |
  \\      /  F ield         | OpenFOAM: The Open Source CFD Toolbox
   \\    /   O peration     | Website:  https://openfoam.org
    \\  /    A nd           | Version:  7
     \\/     M anipulation  |
\*---------------------------------------------------------------------------*/
FoamFile
{
    version     2.0;
    format      ascii;
    class       volVectorField;
    location    "230";
    object      U;
}
// * * * * * * * * * * * * * * * * * * * * * * * * * * * * * * * * * * * * * //

dimensions      [0 1 -1 0 0 0 0];

internalField   nonuniform List<vector> 
24789
(
(98.685156 -0.000219026 -0.00010352438)
(107.29357 -0.0003431565 -7.2970119e-05)
(110.39035 -0.00049611045 -7.2725529e-05)
(112.05205 -0.00056324798 -5.1499362e-06)
(118.19333 0.00032154554 0.0012007325)
(118.19011 0.00037238183 0.0011507774)
(112.05422 -0.00071148975 -0.00010733276)
(110.39408 -0.00063858054 -0.00014855763)
(107.30029 -0.00045893531 -0.00010261312)
(98.698519 -0.00033267799 -0.00011238075)
(98.712988 -0.00055330883 3.914875e-05)
(107.30654 -0.00066077283 2.6881127e-05)
(110.39715 -0.0008141771 -3.2041434e-05)
(112.05558 -0.00085558074 -6.5867028e-07)
(118.1866 0.00045613882 0.0012251332)
(118.18303 0.00054376181 0.0012586766)
(112.05699 -0.0008419365 -4.3016724e-05)
(110.40014 -0.0008086017 -8.0147042e-05)
(107.31297 -0.00065673771 -2.1433054e-05)
(98.727774 -0.00054801314 -8.1148001e-06)
(98.744142 -0.00059963014 1.3260563e-05)
(107.3197 -0.00069549126 -3.3842842e-06)
(110.40322 -0.00083740176 -6.5266699e-05)
(112.05823 -0.00085553684 -2.4218548e-05)
(118.17944 0.00063692336 0.0013159739)
(118.17588 0.00073000408 0.0013732626)
(112.05938 -0.00086076499 -5.2766209e-06)
(110.40607 -0.0008590451 -5.1326911e-05)
(107.32647 -0.000729464 1.1358998e-05)
(98.760845 -0.00064527379 3.3117684e-05)
(98.779193 -0.0007050768 7.0217473e-05)
(107.33357 -0.00077618573 4.2250753e-05)
(110.40903 -0.00089065496 -2.1396265e-05)
(112.06042 -0.0008741349 2.8296321e-05)
(118.1724 0.00081042499 0.0014252501)
(118.16913 0.00086853528 0.0014573079)
(112.0614 -0.00088949501 6.6341106e-05)
(110.41178 -0.00092715744 1.31984e-05)
(107.34078 -0.00082845956 7.8848632e-05)
(98.798097 -0.00077749724 0.00011238485)
(98.818723 -0.00088142187 0.00017822713)
(107.3483 -0.00091826231 0.0001300023)
(110.41463 -0.00099227603 6.046866e-05)
(112.06229 -0.00092922266 0.00011484148)
(118.1662 0.00088683086 0.0014631418)
(118.1638 0.00085535077 0.0014428802)
(112.06313 -0.00097056951 0.00022709451)
(110.41724 -0.0010623416 0.00017965656)
(107.35591 -0.0010183838 0.0002583666)
(98.839997 -0.0010026287 0.000321878)
(98.863125 -0.0011400564 0.00044271905)
(107.36391 -0.0011263592 0.00035839396)
(110.42004 -0.0011406145 0.00026842823)
(112.06401 -0.001021827 0.00030738139)
(118.16223 0.00072013217 0.0013358925)
(118.16191 0.00045755617 0.0011290547)
(112.06516 -0.001092012 0.00040657745)
(110.42283 -0.0012390753 0.0003856288)
(107.37218 -0.0012654735 0.00049873945)
(98.887147 -0.0013237596 0.00062600926)
(98.913296 -0.0015691346 0.00088745077)
(107.38106 -0.0014642627 0.00070419801)
(110.42607 -0.0013863824 0.00055505085)
(112.0667 -0.0012086209 0.00054358175)
(118.1633 6.0388212e-05 0.00079805345)
(118.1671 -0.00068460168 0.00029613791)
(112.06905 -0.0014200454 0.00072301788)
(110.42974 -0.0016171771 0.00077751824)
(107.39063 -0.0017273831 0.00096221395)
(98.940916 -0.0018528252 0.0011549173)
(98.97185 -0.0021636414 0.001428984)
(107.40181 -0.0020451038 0.0012044033)
(110.43481 -0.0019242939 0.00097734179)
(112.07286 -0.0017347627 0.00085757209)
(118.17419 -0.0018026101 -0.00047542466)
(118.18559 -0.0034607474 -0.001609919)
(112.07933 -0.0022181894 0.00090615187)
(110.4422 -0.0023539378 0.001125409)
(107.41571 -0.0024387823 0.001411669)
(99.00659 -0.0024927212 0.0016529047)
(99.048266 -0.0028411599 0.0018048642)
(107.43466 -0.0029437888 0.0015465545)
(110.45419 -0.0029724218 0.0011731771)
(112.09036 -0.0029667162 0.00080985033)
(118.20255 -0.0058635852 -0.0032246913)
(118.22656 -0.0092033124 -0.0054595576)
(112.10864 -0.0040530566 0.00045014699)
(110.4734 -0.0038158956 0.001028995)
(107.46158 -0.0035571675 0.0015297853)
(99.099224 -0.0031595915 0.0018165478)
(99.164329 -0.0033450983 0.0014218612)
(107.50071 -0.0042110972 0.0011077145)
(110.50386 -0.0048776995 0.00043239912)
(112.13764 -0.0055150623 -0.00042254219)
(118.25925 -0.013691788 -0.0084800747)
(118.30252 -0.019517525 -0.012396605)
(112.18182 -0.0073281501 -0.0019456945)
(110.55023 -0.0060627229 -0.00076683941)
(107.55709 -0.0046934654 5.0879283e-05)
(99.248078 -0.003094726 0.00018001564)
(99.357362 -0.0023697971 -0.0018768248)
(107.63721 -0.0049796151 -0.001849808)
(110.61867 -0.0073266286 -0.00284175)
(112.24658 -0.0094862523 -0.0043901155)
(118.35848 -0.026927962 -0.017359532)
(118.42964 -0.036204372 -0.023520698)
(112.33825 -0.012069421 -0.007879121)
(110.71598 -0.0086984398 -0.0058972592)
(107.74841 -0.005081381 -0.0046519892)
(99.49906 -0.0012511081 -0.0047669366)
(99.682304 -1.5423423e-05 -0.0081770661)
(107.89953 -0.0051629549 -0.0082276953)
(110.85055 -0.010341948 -0.0099045029)
(112.46426 -0.015258738 -0.012428756)
(118.51889 -0.047698353 -0.031094151)
(118.62975 -0.061684139 -0.0404109)
(112.63329 -0.019280512 -0.018001089)
(111.03174 -0.012482328 -0.014739871)
(108.10057 -0.0055019132 -0.012375108)
(99.916699 0.001062294 -0.011681512)
(100.21503 0.0018886969 -0.01536603)
(108.36388 -0.00630903 -0.017001657)
(111.2712 -0.015415353 -0.020344276)
(112.85582 -0.024458929 -0.024611396)
(118.76693 -0.078915274 -0.0519605)
(118.93686 -0.1001172 -0.06649655)
(113.14468 -0.031247512 -0.03229202)
(111.58277 -0.019574552 -0.026608426)
(108.70441 -0.008026805 -0.021872658)
(100.59298 0.0021528969 -0.018854247)
(101.06992 0.00097176166 -0.021410946)
(109.14014 -0.011405641 -0.026304453)
(111.98299 -0.025795469 -0.033267932)
(113.51486 -0.040506893 -0.041106277)
(119.14629 -0.12582361 -0.08514197)
(119.40671 -0.15602696 -0.10862616)
(113.99007 -0.05368868 -0.051289428)
(112.4977 -0.035411153 -0.040096311)
(109.69925 -0.017667634 -0.029491168)
(101.67339 -0.0033799464 -0.021583874)
(102.4584 -0.010919095 -0.019191207)
(110.42918 -0.027256916 -0.031837757)
(113.16969 -0.048544416 -0.047254535)
(114.61034 -0.071013632 -0.063101904)
(119.74622 -0.19045644 -0.13628977)
(120.17162 -0.24111613 -0.17559065)
(115.38761 -0.095109015 -0.078014509)
(114.01136 -0.066329725 -0.055395345)
(111.34251 -0.041147367 -0.034371328)
(103.45966 -0.019666285 -0.013426634)
(104.6158 -0.02652138 -0.00045924184)
(112.45182 -0.066409072 -0.041205876)
(115.05093 -0.10323582 -0.072102983)
(116.34543 -0.15033437 -0.10586964)
(120.64632 -0.37068999 -0.25133682)
(121.60898 -0.61034077 -0.33901088)
(118.03991 -0.23772113 -0.15861409)
(116.87899 -0.15199378 -0.11855447)
(114.38071 -0.07714726 -0.068754152)
(106.30002 -0.015773368 -0.067514475)
(110.09765 -0.18142837 -0.43534276)
(118.03413 0.016605153 -0.075410787)
(120.30202 -0.1562659 -0.097846452)
(121.19925 -0.2696331 -0.13471676)
(123.31704 -1.0600528 -0.52223146)
(124.04777 -2.9151228 -1.9126432)
(122.32208 -3.3809764 -2.0974984)
(121.53443 -3.4147319 -2.087971)
(119.50672 -3.3668802 -2.0128248)
(112.1878 -3.4110787 -2.0746539)
(111.77128 -3.7405283 -4.452283)
(118.98314 -3.6670009 -4.4560641)
(121.00277 -3.8655178 -4.4473487)
(121.81798 -3.9339592 -4.3081852)
(123.82678 -3.9537979 -3.1897284)
(123.74337 -5.3257867 -4.2567308)
(122.2089 -6.0302142 -5.0788282)
(121.48579 -6.061173 -5.1504095)
(119.58258 -5.943784 -5.1021519)
(112.48841 -5.8961193 -5.0757026)
(112.21377 -7.81516 -5.8892882)
(118.77392 -8.0215377 -5.8303495)
(120.60896 -8.1267505 -5.8439756)
(121.33332 -8.0846352 -5.77576)
(122.91884 -7.0763004 -4.8243532)
(123.88041 -5.7802389 -3.2358137)
(121.67999 -6.397508 -4.0293887)
(120.89367 -6.4203923 -4.143624)
(118.94541 -6.256832 -4.2015982)
(111.95847 -6.4345803 -4.4152071)
(111.40856 -5.6407864 -2.2630217)
(118.54942 -5.7674244 -2.2394242)
(120.57181 -5.7902722 -2.250041)
(121.41346 -5.6600783 -2.216682)
(123.84579 -4.565788 -2.0479066)
(123.93528 -2.7215061 -1.2543881)
(121.74085 -2.568208 -1.0318948)
(120.89312 -2.5056271 -0.9863365)
(118.73626 -2.354938 -0.91726631)
(111.07889 -2.8159498 -1.1325426)
(108.08777 -0.061097133 -0.13112092)
(116.30351 0.038211251 -0.067158195)
(118.76954 -0.097813233 -0.12908649)
(119.82022 -0.18941191 -0.18121818)
(123.06035 -1.048525 -0.63645633)
(121.49633 -0.62359372 -0.36816936)
(116.96152 -0.21485427 -0.1392265)
(115.71158 -0.1384584 -0.095958474)
(113.08673 -0.08038113 -0.053777346)
(104.89821 -0.03091726 0.0084953767)
(103.2953 -0.024153368 -0.010851706)
(111.30762 -0.058663925 -0.043334049)
(114.00722 -0.096329966 -0.068522391)
(115.36336 -0.14469425 -0.092940496)
(120.60863 -0.39627662 -0.20809811)
(120.17954 -0.26419316 -0.12777592)
(114.41538 -0.099761682 -0.062171489)
(112.98411 -0.068003062 -0.048633578)
(110.21895 -0.039283278 -0.034225959)
(102.16429 -0.016942778 -0.018331433)
(101.17992 -0.012491823 -0.016099749)
(109.30765 -0.030317408 -0.024962618)
(112.13856 -0.053441952 -0.034677132)
(113.63081 -0.077788848 -0.044478435)
(119.78561 -0.21237789 -0.099485956)
(119.4634 -0.17352563 -0.0826834)
(112.99616 -0.060139348 -0.033162614)
(111.45559 -0.04128735 -0.025369401)
(108.57297 -0.023444292 -0.018349489)
(100.40138 -0.0091566013 -0.012538261)
(99.797253 -0.0070557041 -0.0095256934)
(108.00477 -0.018211411 -0.013515017)
(110.92781 -0.031672565 -0.018781797)
(112.5058 -0.046012005 -0.024940809)
(119.21555 -0.13863874 -0.067146053)
(119.01465 -0.109962 -0.053567127)
(112.12117 -0.035579697 -0.018851095)
(110.51423 -0.024606492 -0.014016906)
(107.55775 -0.014392649 -0.0099291894)
(99.31425 -0.0057985541 -0.0069636246)
(98.926435 -0.0049464471 -0.0048422442)
(107.20483 -0.011485279 -0.0071404076)
(110.18956 -0.019241602 -0.01032332)
(111.81881 -0.027622136 -0.014101656)
(118.85023 -0.086875497 -0.042347889)
(118.71665 -0.068352919 -0.033054821)
(111.58414 -0.021387251 -0.01029162)
(109.9379 -0.015054997 -0.0073767582)
(106.92916 -0.0092171475 -0.0049448386)
(98.616514 -0.0042781381 -0.0032104726)
(98.369879 -0.0037384113 -0.0019081501)
(106.71627 -0.0074424175 -0.0031434503)
(109.74562 -0.011762185 -0.0049721163)
(111.40447 -0.016459709 -0.0072053469)
(118.60813 -0.053389511 -0.025408481)
(118.52031 -0.041206316 -0.01917441)
(111.26963 -0.012514698 -0.0048059115)
(109.60165 -0.0091164986 -0.0031393465)
(106.55463 -0.0060170325 -0.0017615412)
(98.174962 -0.0033251094 -0.0008337704)
(98.022735 -0.002946778 -9.550574e-05)
(106.43465 -0.0048076535 -0.00082995558)
(109.49693 -0.0069471872 -0.0018413949)
(111.17123 -0.0093172566 -0.0030199443)
(118.44995 -0.031228039 -0.014093869)
(118.39438 -0.023079779 -0.0099401314)
(111.10204 -0.0067801781 -0.0016627228)
(109.42346 -0.0052111499 -0.00088581343)
(106.34812 -0.003798775 -0.00021315697)
(97.904921 -0.0025457793 0.00030998468)
(97.814664 -0.0022249872 0.00057928596)
(106.28749 -0.0030223114 0.00029252439)
(109.37422 -0.0039201105 -0.00011142429)
(111.05547 -0.0048843521 -0.00058943447)
(118.35126 -0.016543773 -0.0065778164)
(118.31855 -0.011420188 -0.0039986287)
(111.0258 -0.0035381048 0.00021737094)
(109.34274 -0.0030089585 0.00050909735)
(106.24622 -0.0024708124 0.00071645555)
(97.74524 -0.0019629436 0.00080980101)
(97.691374 -0.0018329489 0.0011495714)
(106.21839 -0.0021415716 0.0011507236)
(109.32364 -0.0024327793 0.0010198505)
(111.00788 -0.0026608694 0.00083860493)
(118.29445 -0.0075206869 -0.0020713422)
(118.27733 -0.0046394358 -0.00069819219)
(110.99783 -0.0020845771 0.0011368431)
(109.31251 -0.0020362614 0.0012371789)
(106.19957 -0.0018885933 0.0013370894)
(97.648141 -0.001719418 0.001327275)
(97.612248 -0.0015890009 0.0013362819)
(106.1859 -0.0016877967 0.0013507457)
(109.30601 -0.001772735 0.0012738373)
(110.99237 -0.0017266427 0.0012218425)
(118.26578 -0.0025806583 0.00023950435)
(118.25855 -0.0011548074 0.00083808199)
(110.98941 -0.0015355439 0.0012363245)
(109.3017 -0.0016252441 0.0012704094)
(106.17506 -0.00155919 0.0013384005)
(97.580587 -0.0014798924 0.0013156942)
(97.551946 -0.0013855777 0.0012796352)
(106.16535 -0.001466744 0.0012998386)
(109.29836 -0.0015335615 0.0012308403)
(110.98751 -0.0014312483 0.001205946)
(118.25461 -0.00017909292 0.0012274078)
(118.25312 0.00044289605 0.0014174465)
(110.98614 -0.0013531701 0.0011020949)
(109.29522 -0.0014495421 0.0011234402)
(106.15625 -0.0013733362 0.0012011216)
(97.524871 -0.0012889924 0.0011915664)
(97.499415 -0.001216457 0.0011382729)
(106.1472 -0.0012988872 0.0011214855)
(109.29204 -0.0013906859 0.0010360367)
(110.98476 -0.0013073186 0.0010149309)
(118.25338 0.00082150998 0.0015156565)
(118.2549 0.0010263584 0.0015212063)
(110.9834 -0.0012641236 0.00092931001)
(109.28866 -0.0013325542 0.00095460746)
(106.13834 -0.0012276227 0.0010471668)
(97.474916 -0.0011425512 0.0010792649)
(97.451846 -0.0010903426 0.0010495614)
(106.12945 -0.0011815001 0.0010065914)
(109.28514 -0.0012989877 0.00090386504)
(110.98182 -0.001246026 0.00086943106)
(118.25725 0.0011188012 0.0014968494)
(118.26016 0.0011435606 0.0014431857)
(110.98008 -0.0012115127 0.00078237225)
(109.28132 -0.0012475635 0.00082160181)
(106.12071 -0.0011182029 0.00092828644)
(97.429557 -0.0010166551 0.00097144634)
(97.408711 -0.00095656838 0.00091644357)
(106.11198 -0.0010639862 0.00086122588)
(109.2774 -0.0012009407 0.00075186079)
(110.97811 -0.0011812971 0.00071024891)
(118.26342 0.00111109 0.0013792781)
(118.2669 0.0010469142 0.0013148447)
(110.97605 -0.0011510157 0.00065317384)
(109.27328 -0.0011548107 0.00069546086)
(106.10348 -0.0010133707 0.00080540405)
(97.388569 -0.00090096109 0.00087328663)
(97.369829 -0.00085208602 0.00083529165)
(106.09504 -0.0009673674 0.00076428358)
(109.26909 -0.001113635 0.00065463121)
(110.97373 -0.0011237227 0.00061027991)
(118.27046 0.00095728517 0.0012459905)
(118.27407 0.0008582057 0.0011820932)
(110.97136 -0.0011029223 0.00058303317)
(109.26477 -0.00108007 0.0006307103)
(106.08688 -0.00092792791 0.00074096678)
(97.351719 -0.00081105721 0.00081318159)
(97.334902 -0.00077944901 0.00084357885)
(106.07873 -0.00089800042 0.00077236552)
(109.26036 -0.0010481565 0.00066155969)
(110.9687 -0.0010788381 0.00060762808)
(118.27766 0.00075147122 0.0011351022)
(118.28116 0.0006047274 0.0010578643)
(110.96624 -0.0010140004 0.00058199745)
(109.25608 -0.00095220821 0.0006420426)
(106.07113 -0.0007789884 0.00075385416)
(97.31881 -0.00065541982 0.00082053544)
(97.302649 -0.00070382065 0.00085716423)
(106.06183 -0.00087733723 0.00077588975)
(109.25009 -0.00099168061 0.00068528057)
(110.96201 -0.001009255 0.00063964208)
(118.28422 0.0004627991 0.0010254727)
(118.27975 -0.00061161918 0.0012983174)
(110.96484 0.00016611845 -0.0004128451)
(109.25461 0.00017687082 -0.00041852954)
(106.06975 0.00012850949 -0.00032116351)
(97.318249 8.0525026e-05 -0.00027648719)
(97.333688 2.0423298e-06 -0.00044412078)
(106.07739 8.1860116e-05 -0.00054081332)
(109.25904 0.00016023352 -0.00068455053)
(110.9674 0.00016598462 -0.00070857494)
(118.27615 -0.00067628884 0.001200904)
(118.27239 -0.00080906725 0.0012989625)
(110.96944 8.6535718e-05 -0.00075372198)
(109.26272 8.5863087e-05 -0.00074360275)
(106.0847 7.968104e-06 -0.00060274377)
(97.349526 -7.0435478e-05 -0.00051160365)
(97.367369 -0.00017412754 -0.00057841214)
(106.09262 -9.3840006e-05 -0.00066840687)
(109.2668 -1.007906e-05 -0.00080961741)
(110.97154 -7.6414714e-06 -0.0008130892)
(118.2686 -0.00093295019 0.0013583508)
(118.26483 -0.0010707382 0.001415627)
(110.97355 -0.00012185106 -0.00086594246)
(109.27061 -0.0001241205 -0.00087523802)
(106.10064 -0.00021225476 -0.00073937241)
(97.385652 -0.00029299018 -0.00065351106)
(97.405751 -0.00042025831 -0.0007392285)
(106.10902 -0.00033842278 -0.00082073882)
(109.27458 -0.00024652943 -0.0009492146)
(110.97542 -0.00024463619 -0.00092606068)
(118.26115 -0.0012051283 0.0014474048)
(118.25768 -0.0013310475 0.0014427746)
(110.97718 -0.00037557187 -0.0009894068)
(109.27823 -0.00037530534 -0.0010288811)
(106.11748 -0.00046951584 -0.00091069949)
(97.42639 -0.00055457216 -0.0008336582)
(97.448878 -0.00069666912 -0.00093431639)
(106.12623 -0.00061612722 -0.0010012177)
(109.28195 -0.00052421542 -0.0011074294)
(110.97873 -0.00052799161 -0.0010505696)
(118.25454 -0.0014414264 0.0013903701)
(118.25193 -0.0015312597 0.0012693582)
(110.98011 -0.00069159858 -0.0011205928)
(109.28524 -0.00068561996 -0.0011942078)
(106.13491 -0.0007736024 -0.0011018162)
(97.47186 -0.00084297293 -0.0010370528)
(97.496591 -0.001042071 -0.0011649101)
(106.14378 -0.00099350792 -0.0012257331)
(109.28852 -0.00090523807 -0.0013041383)
(110.98129 -0.000906504 -0.0012120931)
(118.2501 -0.0016006066 0.001034912)
(118.2495 -0.0015638469 0.00063359192)
(110.98247 -0.0010844789 -0.0012984932)
(109.29148 -0.0010870244 -0.0014046469)
(106.15265 -0.0011678436 -0.0013415715)
(97.521989 -0.0011890795 -0.0012814685)
(97.54927 -0.0013110863 -0.0013949568)
(106.16175 -0.0013254182 -0.0014654386)
(109.29452 -0.0012547027 -0.0015192767)
(110.98367 -0.0012471336 -0.0014068192)
(118.25058 -0.0014307798 1.1420452e-05)
(118.25404 -0.0010849862 -0.00097158711)
(110.98528 -0.0013361748 -0.0015368806)
(109.29759 -0.0013562818 -0.0016387693)
(106.17125 -0.0014146126 -0.0015802391)
(97.577927 -0.0013818434 -0.0015078206)
(97.609942 -0.0014057756 -0.0016165297)
(106.18211 -0.0014458089 -0.0017160087)
(109.30174 -0.0013789697 -0.0017978793)
(110.988 -0.0013429778 -0.0017402496)
(118.26071 -0.00052435465 -0.0023866967)
(118.27161 0.00035271177 -0.0043906307)
(110.99316 -0.0012433942 -0.0020791992)
(109.30798 -0.0013181387 -0.0020409294)
(106.19564 -0.0013758685 -0.0018878239)
(97.646046 -0.001294484 -0.0017042107)
(97.689947 -0.0010030085 -0.0017719923)
(106.21467 -0.001130235 -0.0020963875)
(109.31907 -0.0010794902 -0.0024022976)
(111.00302 -0.00094730652 -0.0026192725)
(118.28794 0.0016323979 -0.0071790628)
(118.31111 0.0034181165 -0.01089389)
(111.02084 -0.00024948507 -0.003371361)
(109.33819 -0.00044729748 -0.0028570893)
(106.24275 -0.00056427222 -0.0023130304)
(97.744497 -0.00055148281 -0.0018145111)
(97.8151 -6.0182563e-05 -0.0019228961)
(106.28476 8.9011938e-05 -0.0026769932)
(109.37008 0.00035171457 -0.0035518335)
(111.05069 0.00069339628 -0.0044826664)
(118.3427 0.0057906467 -0.015714382)
(118.38447 0.0088424892 -0.021825755)
(111.09746 0.0019231247 -0.0060633633)
(109.41976 0.0013643353 -0.004560951)
(106.34607 0.00089143202 -0.0032163569)
(97.90632 0.00053762006 -0.0020750995)
(98.024807 0.0013363468 -0.0022502908)
(106.43314 0.0018844247 -0.0039388628)
(109.49354 0.0026244344 -0.0059325523)
(111.16669 0.00348879 -0.0081847353)
(118.43839 0.012683428 -0.029434049)
(118.50671 0.017448101 -0.038825264)
(111.26448 0.0054528493 -0.010956079)
(109.59785 0.0042085273 -0.0077349548)
(106.55277 0.0031370512 -0.004876024)
(98.176604 0.0023095987 -0.0024858713)
(98.369661 0.003436528 -0.0028287184)
(106.71272 0.0046746746 -0.0060919951)
(109.74022 0.0061910219 -0.010053134)
(111.39758 0.0079103038 -0.014501793)
(118.5921 0.023294383 -0.050416835)
(118.69777 0.030327365 -0.064729138)
(111.57371 0.010938483 -0.01900437)
(109.92883 0.0086313842 -0.013005307)
(106.92167 0.0065649114 -0.0076435059)
(98.612161 0.004839893 -0.0032485159)
(98.915448 0.006438716 -0.0038227838)
(107.19066 0.0087534829 -0.0096900653)
(110.17424 0.011517506 -0.016843249)
(111.80248 0.014577094 -0.024796987)
(118.82797 0.038928919 -0.082563113)
(118.98837 0.049559602 -0.10497538)
(112.09637 0.018981543 -0.032371453)
(110.48975 0.014947241 -0.021932667)
(107.53389 0.011293741 -0.012467399)
(99.293816 0.0082862419 -0.0046617373)
(99.765766 0.010607423 -0.0058019633)
(107.96919 0.014420459 -0.016262954)
(110.89213 0.019237397 -0.028814593)
(112.4707 0.024592245 -0.042489407)
(119.18497 0.062639982 -0.13308904)
(119.42733 0.077457643 -0.16738829)
(112.9489 0.03271876 -0.056125358)
(111.40662 0.025743281 -0.038008765)
(108.52348 0.019552487 -0.021093289)
(100.35669 0.014545596 -0.0071038529)
(101.11818 0.019835553 -0.0090834913)
(109.24363 0.02830462 -0.026848733)
(112.07634 0.036840031 -0.049217737)
(113.57141 0.045464198 -0.073010639)
(119.74153 0.09374851 -0.20623753)
(120.13763 0.11981046 -0.25610005)
(114.35735 0.068245261 -0.092030539)
(112.92193 0.056749305 -0.060757091)
(110.15271 0.043662998 -0.032911157)
(102.09435 0.025247336 -0.011521011)
(103.22866 0.028808744 -0.011870079)
(111.23283 0.074413212 -0.041197717)
(113.94207 0.099021834 -0.076504524)
(115.30603 0.11890268 -0.1240739)
(120.56941 0.19969015 -0.37690487)
(121.39272 0.36879093 -0.61454649)
(116.81746 0.21275763 -0.19724101)
(115.54792 0.17629103 -0.11501012)
(112.88319 0.12917486 -0.054198957)
(104.71382 0.036929523 -0.016710967)
(107.67465 0.11363806 -0.10003878)
(116.11833 0.15957179 0.032444732)
(118.62153 0.22017776 -0.11637485)
(119.68824 0.272668 -0.21529375)
(123.00755 0.57779464 -1.0123039)
(124.30706 1.1769408 -2.5437027)
(122.46807 0.36203019 -2.5035258)
(121.68589 0.24218798 -2.4771099)
(119.6109 0.088131065 -2.3437341)
(112.01359 0.47694554 -3.0487164)
(110.12966 4.0298312 -7.1505767)
(117.06443 4.2134617 -7.7235584)
(119.15613 4.1294325 -7.699271)
(120.09778 3.9801776 -7.5346552)
(123.24293 2.8355062 -5.713254)
(122.9982 3.1003345 -5.6096101)
(119.98199 3.265559 -5.5515479)
(119.05518 3.2570854 -5.5041716)
(116.88341 3.1657531 -5.2660915)
(109.46867 3.2358246 -5.4594525)
(112.10882 3.6065237 -8.2537987)
(118.98324 3.7269924 -8.3093176)
(120.86213 3.9752852 -8.3861118)
(121.60554 4.1197299 -8.3301968)
(123.20981 4.1440779 -7.0771069)
(122.59492 1.444476 -6.7306781)
(119.53497 2.2607716 -7.6631412)
(118.51491 2.403162 -7.7637902)
(116.32228 2.5214546 -7.6736015)
(109.13833 2.6232194 -7.4299561)
(111.33746 0.5545652 -8.4207649)
(118.00283 0.74088118 -8.7939652)
(119.95341 0.79570645 -8.6783444)
(120.80569 0.80840931 -8.4010877)
(123.27785 0.81616813 -6.4089161)
(124.37114 0.36391462 -2.7080957)
(123.04254 0.52741501 -2.7904654)
(122.34835 0.54728043 -2.7732792)
(120.42513 0.54690922 -2.6545686)
(113.0989 0.66981627 -3.3780796)
(109.00435 0.2013528 -0.22769029)
(117.13663 0.15073742 -0.02111396)
(119.47562 0.14596822 -0.15691124)
(120.4451 0.1361337 -0.24279401)
(123.0208 0.12830783 -0.93286914)
(121.30344 0.056127109 -0.56257359)
(117.47377 -0.0054267839 -0.23351394)
(116.27267 -0.01385894 -0.15772249)
(113.73704 -0.019257574 -0.086906933)
(105.81252 -0.0184284 -0.049539049)
(104.22264 -0.064256958 -0.032737695)
(112.00463 -0.057733046 -0.071642116)
(114.61194 -0.048640774 -0.10860458)
(115.92604 -0.037230815 -0.15332605)
(120.4331 0.027642223 -0.35361299)
(120.00783 0.019409705 -0.24413923)
(115.00403 -0.041260482 -0.11286075)
(113.60812 -0.052570086 -0.083507019)
(110.92478 -0.063454984 -0.056930281)
(103.0539 -0.071912638 -0.033872767)
(102.07151 -0.068030557 -0.029657688)
(110.03834 -0.059277273 -0.045582774)
(112.79797 -0.048590133 -0.067263904)
(114.25935 -0.038047736 -0.089776204)
(119.61987 0.018038724 -0.19847442)
(119.31094 0.015478502 -0.16318922)
(113.67959 -0.03470585 -0.070999368)
(112.16851 -0.044102479 -0.053483465)
(109.35108 -0.053743031 -0.036661702)
(101.32303 -0.061829728 -0.02438021)
(100.75387 -0.055353327 -0.020139115)
(108.83119 -0.048189089 -0.029722809)
(111.69185 -0.039772964 -0.042526915)
(113.2396 -0.031651486 -0.056036452)
(119.07099 0.012173766 -0.13188663)
(118.87531 0.0090461407 -0.1057157)
(112.89771 -0.02843556 -0.044513392)
(111.32269 -0.035358514 -0.034045964)
(108.4281 -0.042560121 -0.024202436)
(100.30701 -0.048907382 -0.016727138)
(99.954093 -0.042559351 -0.013880406)
(108.11391 -0.037030938 -0.019662611)
(111.03587 -0.030901744 -0.027221358)
(112.6312 -0.025072996 -0.035324682)
(118.71534 0.0066037649 -0.084405545)
(118.5853 0.0048101101 -0.067020444)
(112.4254 -0.021590992 -0.027808492)
(110.81503 -0.026425024 -0.021617268)
(107.87065 -0.031596818 -0.015902733)
(99.675137 -0.036391081 -0.011495425)
(99.454438 -0.030483211 -0.0093855613)
(107.68363 -0.026319026 -0.012664196)
(110.64679 -0.022008243 -0.016895882)
(112.26804 -0.018085269 -0.021543907)
(118.47962 0.003462676 -0.052694361)
(118.3942 0.0023678477 -0.040822398)
(112.14979 -0.014691669 -0.016402266)
(110.52083 -0.017779589 -0.013008669)
(107.54183 -0.021319796 -0.0099779112)
(99.280368 -0.024958151 -0.0075988871)
(99.144341 -0.019814144 -0.0060575552)
(107.43652 -0.016630167 -0.0077071254)
(110.42905 -0.013785796 -0.0097817579)
(112.0632 -0.011459706 -0.012168105)
(118.32593 0.0014616517 -0.030966909)
(118.27215 0.00074833688 -0.022833792)
(112.00191 -0.0084316829 -0.0086860213)
(110.36434 -0.010076803 -0.0070886464)
(107.36026 -0.012287802 -0.0057397918)
(99.038563 -0.01505293 -0.0047066994)
(98.956817 -0.010812511 -0.0035635006)
(107.30635 -0.0084554761 -0.0041504979)
(110.32049 -0.0068173639 -0.0049638622)
(111.96015 -0.0057551389 -0.0059629089)
(118.23058 0.00021154318 -0.016256069)
(118.19922 -0.00016882836 -0.011066122)
(111.93304 -0.00355616 -0.0039115224)
(110.29199 -0.0041433154 -0.0033394619)
(107.26912 -0.005225559 -0.0028748382)
(98.893128 -0.0069705822 -0.0025889372)
(98.84296 -0.0039869738 -0.0018635554)
(107.24351 -0.0028857939 -0.0020080768)
(110.27426 -0.0022724815 -0.002258825)
(111.91624 -0.0020172256 -0.0025399936)
(118.17628 -0.00042770734 -0.007138496)
(118.16022 -0.0006056908 -0.004261421)
(111.90652 -0.0010826 -0.0016893525)
(110.2636 -0.0011351795 -0.0015926123)
(107.22577 -0.0014119419 -0.0014610423)
(98.802019 -0.0020195037 -0.0013832331)
(98.767567 -0.0009495085 -0.0010793185)
(107.21267 -0.00072509437 -0.0011144164)
(110.2572 -0.00066720684 -0.0012128691)
(111.90108 -0.00069912802 -0.0012079671)
(118.14961 -0.00072543428 -0.0022533569)
(118.14321 -0.00076593945 -0.0009322742)
(111.8981 -0.00066610693 -0.0010294043)
(110.25293 -0.0006385383 -0.0010807148)
(107.20215 -0.00062966173 -0.0009880776)
(98.736842 -0.00060068453 -0.00093135011)
(98.709027 -0.00059963488 -0.00087271858)
(107.19288 -0.0006709799 -0.00093701787)
(110.24978 -0.00068000945 -0.0010353332)
(111.89636 -0.00069723371 -0.00096637479)
(118.13998 -0.00079970085 -7.2049015e-05)
(118.13913 -0.00080134787 0.00048136523)
(111.8954 -0.00073234341 -0.00094565349)
(110.2471 -0.00073449682 -0.0010161791)
(107.18441 -0.00074109685 -0.00090677782)
(98.682863 -0.00068868814 -0.0008404916)
(98.658486 -0.00078748294 -0.00079694584)
(107.17625 -0.00080560256 -0.0008641935)
(110.24464 -0.00076951261 -0.00098667185)
(111.89468 -0.00074599173 -0.00092393468)
(118.13993 -0.00077153607 0.00082677091)
(118.14195 -0.00071715584 0.00098698529)
(111.89417 -0.00074686994 -0.00095316228)
(110.24218 -0.00078939147 -0.0010059662)
(107.16846 -0.00085415563 -0.00087534107)
(98.63517 -0.00087325087 -0.00078892886)
(98.61339 -0.00088228395 -0.00075677222)
(107.16076 -0.00084566442 -0.00085041454)
(110.23968 -0.00076994783 -0.00099005324)
(111.89355 -0.00071785394 -0.00095165059)
(118.14473 -0.00065853608 0.0010695894)
(118.14799 -0.00059645361 0.0010972098)
(111.89291 -0.00068086121 -0.00094140589)
(110.23706 -0.0007400307 -0.00096787927)
(107.15336 -0.00082528279 -0.00081953149)
(98.592593 -0.00087644677 -0.00072013644)
(98.57328 -0.00086182843 -0.0006831366)
(107.14606 -0.0007987958 -0.00078320309)
(110.23438 -0.00070445086 -0.00094043864)
(111.89209 -0.0006391305 -0.00092560897)
(118.15157 -0.0005363001 0.0010946574)
(118.15533 -0.00047182886 0.0010497191)
(111.89123 -0.00059270916 -0.00090576593)
(110.23158 -0.00066312884 -0.00090929647)
(107.13903 -0.00076490049 -0.00074786346)
(98.554719 -0.00083930076 -0.00064710974)
(98.537625 -0.00079885607 -0.00060820401)
(107.13215 -0.00071629285 -0.00070886922)
(110.22877 -0.00060996846 -0.00087121104)
(111.8902 -0.00053643288 -0.00087857156)
(118.15915 -0.00040664792 0.00098749661)
(118.163 -0.00034417467 0.00091321256)
(111.88913 -0.00047183827 -0.00083515719)
(110.22587 -0.00054314937 -0.00081864879)
(107.12556 -0.00064720101 -0.00066067956)
(98.521244 -0.00073244947 -0.00056159253)
(98.506514 -0.0006676226 -0.00050510197)
(107.11933 -0.0005812165 -0.00060395834)
(110.22316 -0.00047844771 -0.00076734923)
(111.88805 -0.00040729651 -0.00080060052)
(118.16678 -0.00028098496 0.0007983477)
(118.1704 -0.00026545285 0.00086713163)
(111.88651 -0.00036492554 -0.00054515668)
(110.21992 -0.00042040167 -0.00054746162)
(107.11306 -0.00050503836 -0.0004388671)
(98.49264 -0.00058259457 -0.00039498836)
(98.698918 0.00058717201 0.00022555993)
(107.29947 0.00065338526 0.00024553226)
(110.39306 0.00073322922 0.00022016805)
(112.05309 0.00071241958 0.00026127858)
(118.18871 -0.00071287055 0.0013426477)
(118.18506 -0.00067173445 0.0012140883)
(112.05445 0.00081093492 6.6009679e-05)
(110.39595 0.00079435095 5.3650396e-05)
(107.30544 0.0006580424 0.00011830021)
(98.711894 0.00055319206 0.0001190521)
(98.726638 0.00053926473 3.5201206e-05)
(107.31137 0.00063387711 3.408739e-05)
(110.39855 0.00076210925 -2.4855509e-05)
(112.05532 0.00076316129 -9.941545e-08)
(118.18132 -0.00082259667 0.0012282136)
(118.17753 -0.00095307107 0.0012171165)
(112.05633 0.00073215657 -7.9611062e-05)
(110.40119 0.00074174347 -0.00010976935)
(107.31769 0.0006153318 -5.1072366e-05)
(98.742091 0.00052081588 -5.1859621e-05)
(98.759346 0.00051311967 -0.00011720485)
(107.32443 0.00060382996 -0.00011279688)
(110.404 0.00072295018 -0.00016747286)
(112.05725 0.00069729025 -0.0001314577)
(118.17376 -0.0010890853 0.0012077142)
(118.1701 -0.0012197609 0.0011871152)
(112.05813 0.00065961332 -0.00017671744)
(110.40663 0.00070346765 -0.00021765295)
(107.33129 0.00059261631 -0.00016756191)
(98.777099 0.000504799 -0.00017695381)
(98.796639 0.00049471372 -0.00024022268)
(107.33853 0.00057862422 -0.00022577701)
(110.4094 0.00067884477 -0.0002720141)
(112.05891 0.00061596461 -0.00022623834)
(118.1666 -0.0013297249 0.0011419833)
(118.16346 -0.0014251665 0.0010738686)
(112.05966 0.0005411506 -0.00026909256)
(110.41196 0.0006225906 -0.00032130223)
(107.34586 0.00053411316 -0.00028114808)
(98.81676 0.00046620901 -0.00030707609)
(98.838608 0.00043904859 -0.00044528802)