/*--------------------------------*- C++ -*----------------------------------*\
  =========                 |
  \\      /  F ield         | OpenFOAM: The Open Source CFD Toolbox
   \\    /   O peration     | Website:  https://openfoam.org
    \\  /    A nd           | Version:  7
     \\/     M anipulation  |
\*---------------------------------------------------------------------------*/
FoamFile
{
    version     2.0;
    format      ascii;
    class       volScalarField;
    location    "400";
    object      alphat;
}
// * * * * * * * * * * * * * * * * * * * * * * * * * * * * * * * * * * * * * //

dimensions      [1 -1 -1 0 0 0 0];

internalField   nonuniform List<scalar> 
24789
(
0.0014141544
0.0072432676
0.017563307
0.03014999
0.39326419
0.39556307
0.030346295
0.017680892
0.0072894484
0.001417345
0.0014206219
0.0073366835
0.01780088
0.030546582
0.39792188
0.40034351
0.030751573
0.017923716
0.0073850623
0.0014239944
0.0014274694
0.007434639
0.018049326
0.030961163
0.40283214
0.40539179
0.031175975
0.018178099
0.0074854944
0.0014310544
0.0014347573
0.0075376832
0.018309995
0.031395979
0.40802691
0.41074222
0.031621757
0.018445364
0.007591282
0.0014385859
0.0014425498
0.0076463598
0.018584233
0.031853371
0.41354338
0.41643601
0.032091296
0.018726894
0.0077029956
0.001446657
0.001450917
0.0077612711
0.018873477
0.032335781
0.4194268
0.42252245
0.032587327
0.019024277
0.0078212768
0.0014553413
0.0014599424
0.0078830962
0.019179466
0.032846269
0.42573057
0.42905969
0.033113034
0.019339291
0.0079468224
0.0014647328
0.0014697281
0.0080125438
0.019503988
0.033388047
0.43251954
0.43612039
0.033671826
0.019673831
0.0080803632
0.001474945
0.0014804037
0.0081503662
0.019849121
0.033964974
0.43987465
0.44379635
0.03426791
0.020030062
0.0082226352
0.001486127
0.0014921434
0.0082972594
0.020217008
0.034581358
0.44790235
0.45221205
0.034905885
0.020410185
0.0083742982
0.0014984848
0.0015051903
0.0084537979
0.02060997
0.035242413
0.45675008
0.46154688
0.035591532
0.02081653
0.0085357714
0.0015123084
0.001519899
0.0086201687
0.021030172
0.035954226
0.46664102
0.47208266
0.03633112
0.021250911
0.0087068693
0.0015280365
0.001536817
0.0087956301
0.021478855
0.036723216
0.47793869
0.48430032
0.037130806
0.021713586
0.0088860572
0.0015463638
0.001556842
0.0089775834
0.021954412
0.037553863
0.49129444
0.49909336
0.0379905
0.022199526
0.0090692671
0.0015684905
0.0015816476
0.0091596657
0.022446678
0.038437271
0.50793094
0.51819478
0.038893674
0.022696155
0.0092483812
0.00159691
0.0016164018
0.0093448036
0.022958514
0.039384961
0.53063092
0.54634646
0.0400367
0.023300301
0.0094717636
0.0016437547
0.0016764493
0.0096108276
0.023862343
0.041103024
0.5670764
0.60317399
0.043651879
0.025458049
0.010289413
0.0017314008
0.0017644242
0.010631646
0.026106548
0.044422852
0.62863222
0.64925864
0.047396809
0.027808127
0.011289365
0.0017998909
0.0017921329
0.011856655
0.029572498
0.050834723
0.65009365
0.69218576
0.043557764
0.026108493
0.010750041
0.0017560259
0.0017178777
0.010265014
0.025042432
0.042312382
0.68246092
0.65650259
0.038523787
0.022735417
0.009268552
0.0016518464
0.0016039925
0.0088620996
0.021636549
0.036766947
0.6296018
0.611425
0.035982902
0.021173688
0.0087107292
0.0015701271
0.0015445689
0.0085948797
0.020894736
0.035494162
0.59601759
0.58295891
0.035102715
0.020677729
0.0085090388
0.0015262721
0.0015117948
0.008432046
0.02047084
0.034727093
0.57177613
0.56190469
0.034345986
0.020259228
0.0083538812
0.0014994499
0.0014885619
0.0082726437
0.020042801
0.033962384
0.55304625
0.54500723
0.03358216
0.019824719
0.0081894763
0.0014787175
0.0014697063
0.0081061166
0.019608961
0.033210819
0.5376432
0.53084215
0.032851099
0.019397866
0.0080237116
0.0014613938
0.0014536835
0.0079430294
0.019192903
0.032504487
0.52451964
0.5186087
0.032170892
0.018994525
0.0078645115
0.0014464984
0.0014397748
0.0077883358
0.018802895
0.031850053
0.51305495
0.50781405
0.03154108
0.018617763
0.0077145664
0.0014334577
0.0014274998
0.0076431847
0.018438982
0.031243479
0.50285051
0.49813458
0.030956378
0.0182662
0.0075741553
0.0014218629
0.0014165144
0.0075073819
0.018099165
0.030679222
0.49364198
0.48935145
0.030411266
0.017937512
0.0074427764
0.0014114239
0.0014065696
0.0073802547
0.017781025
0.030152101
0.48524546
0.48130807
0.029901088
0.017629379
0.0073197019
0.0014019293
0.0013974862
0.0072610414
0.01748232
0.02965776
0.47752619
0.47388759
0.029421695
0.017339616
0.0072041645
0.0013932251
0.0013891311
0.0071489886
0.017201016
0.029192481
0.47038193
0.46699956
0.028969804
0.017066365
0.007095441
0.0013851941
0.0013814021
0.007043412
0.016935346
0.028753154
0.46373179
0.4605714
0.028542357
0.016807884
0.0069928516
0.0013777459
0.001374217
0.0069436628
0.016683672
0.028336921
0.45751096
0.45454427
0.028136837
0.016562711
0.0068958008
0.0013708063
0.0013675066
0.0068491784
0.016444642
0.027941508
0.45166484
0.44886687
0.027750999
0.01632951
0.0068037436
0.0013643103
0.0013612097
0.0067594079
0.016216907
0.027564629
0.4461447
0.44349318
0.027382537
0.016106908
0.0067161146
0.0013581968
0.0013552619
0.0066738943
0.015999296
0.027204275
0.44091197
0.44360756
0.027388141
0.016110308
0.0067174545
0.0013582713
0.0013612947
0.0067608511
0.016220564
0.027570671
0.44626516
0.4489968
0.027757515
0.016333463
0.0068053102
0.0013644049
0.0013676086
0.0068508607
0.016448872
0.027948497
0.45180505
0.45469536
0.02814428
0.016567225
0.0068975995
0.0013709149
0.0013743326
0.0069455851
0.016688487
0.028344862
0.4576741
0.46074878
0.028550852
0.016813044
0.0069949133
0.0013778705
0.0013815358
0.0070456409
0.016940894
0.028762282
0.46392589
0.46721257
0.02897964
0.017072346
0.0070978456
0.0013853374
0.0013892858
0.0071516058
0.017207505
0.029203155
0.47061711
0.47414848
0.029433298
0.017346672
0.0072070142
0.0013933917
0.0013976674
0.0072641504
0.017489998
0.029670369
0.47781653
0.48163259
0.029914876
0.017637795
0.0073231245
0.0014021267
0.0014067853
0.0073840262
0.017790298
0.030167293
0.48560917
0.48976037
0.030428063
0.017947767
0.007446957
0.0014116612
0.0014167749
0.0075120138
0.0181105
0.030697761
0.49410227
0.49865323
0.030976927
0.018278782
0.0075793055
0.0014221506
0.001427817
0.0076489374
0.018453003
0.031266355
0.50343466
0.50847147
0.031566574
0.018633402
0.0077209944
0.0014338073
0.0014401596
0.0077955418
0.018820365
0.031878439
0.51379299
0.51943368
0.032202476
0.019014011
0.0078725702
0.0014469175
0.0014541357
0.0079520284
0.019214586
0.032539512
0.52543618
0.53185165
0.032889742
0.01942186
0.0080336984
0.0014618752
0.0014702086
0.0081171275
0.019635309
0.033253079
0.53874343
0.54618913
0.033627677
0.01985322
0.0082014556
0.0014792252
0.0014890468
0.0082853522
0.020072723
0.034009878
0.5542902
0.56317866
0.034392757
0.020289032
0.0083668962
0.0014998759
0.0015121303
0.0084444959
0.020497425
0.034767873
0.57302974
0.58410647
0.035128845
0.020696068
0.0085194422
0.0015265111
0.0015447422
0.008601162
0.020896839
0.035493163
0.59693476
0.61207874
0.035953872
0.021153565
0.0087105817
0.0015705375
0.0016069978
0.0088947757
0.021655782
0.036814416
0.63051122
0.65708062
0.03868104
0.022790135
0.0092640573
0.0016522135
0.0017211613
0.010358973
0.025314942
0.043123521
0.68639146
0.69369882
0.040822842
0.024677471
0.010232039
0.0017147936
0.0017727769
0.011715295
0.029245093
0.05014402
0.65061425
0.65738529
0.046803963
0.027141783
0.010972855
0.0017576196
0.0017903789
0.011331922
0.028233502
0.048898794
0.63242567
0.59999094
0.043523234
0.025475378
0.010265379
0.001728272
0.0016790478
0.0097225052
0.023882303
0.040868794
0.56962916
0.54933481
0.039564745
0.023131946
0.0094570431
0.0016382993
0.0016080239
0.0092855116
0.022717382
0.038836453
0.53349716
0.52068054
0.038301467
0.022412249
0.009164418
0.0015869503
0.0015707272
0.0090625299
0.022144095
0.037826578
0.51001788
0.50080706
0.037369868
0.021886625
0.0089653428
0.0015572186
0.0015454597
0.0088689732
0.021633619
0.036924993
0.49267543
0.48538608
0.036494043
0.021385872
0.0087736382
0.0015349516
0.0015253933
0.0086800301
0.021145121
0.036079283
0.47876356
0.47268074
0.035681261
0.020912206
0.0085886538
0.0015166018
0.0015084528
0.008499887
0.020687578
0.03529989
0.46704442
0.46178478
0.034934206
0.02047114
0.0084139489
0.0015008549
0.0014937353
0.0083308965
0.020262734
0.034583419
0.4568488
0.45219405
0.034246294
0.020061876
0.0082506881
0.0014870349
0.0014807074
0.0081732717
0.019868287
0.033922074
0.44778766
0.44360214
0.033609659
0.019681455
0.0080985261
0.0014747131
0.0014690178
0.0080263416
0.019501071
0.033308411
0.43961535
0.43580805
0.033017397
0.01932667
0.0079565798
0.0014635925
0.0014584128
0.0078891126
0.019157929
0.032736049
0.43216401
0.42866919
0.03246369
0.018994507
0.0078238277
0.0014534585
0.001448711
0.0077606082
0.018836116
0.03219983
0.4253116
0.42208059
0.031943926
0.018682474
0.0076993485
0.0014441549
0.0014397765
0.0076399409
0.018533291
0.031695502
0.41896678
0.41596187
0.031454222
0.018388396
0.0075823016
0.0014355631
0.0014315033
0.0075263204
0.018247467
0.031219561
0.41305844
0.41024936
0.030991303
0.018110395
0.0074719286
0.0014275878
0.0014238074
0.0074190302
0.017976856
0.030768905
0.40752839
0.40488978
0.030552297
0.017846807
0.0073675572
0.0014201538
0.0014166186
0.0073174138
0.017719868
0.030340839
0.40232771
0.39983769
0.030134575
0.017596067
0.0072685401
0.0014131934
0.0014098705
0.007220859
0.017475025
0.029932859
0.3974152
0.39505889
0.029735941
0.017356883
0.0071743476
0.0014066438
0.0014174976
0.0072915876
0.017686237
0.030355236
0.39567004
0.3980368
0.030555398
0.017806164
0.0073387547
0.0014207611
0.001424128
0.0073871359
0.017928906
0.030760231
0.40046809
0.40296697
0.030970282
0.018054806
0.0074367924
0.0014276037
0.0014311938
0.0074877507
0.018183752
0.031185394
0.40553795
0.40818596
0.031406121
0.018316085
0.0075400856
0.001434905
0.0014387445
0.0075938444
0.018451786
0.03163246
0.41091605
0.41373414
0.03186495
0.018591185
0.007649117
0.0014427204
0.0014468424
0.0077059773
0.01873436
0.032103739
0.41664619
0.41965888
0.032349352
0.01888162
0.0077645153
0.0014511197
0.0014555626
0.0078247999
0.019033097
0.032602049
0.42278025
0.42601824
0.032862306
0.019189085
0.0078869452
0.0014601849
0.0014650002
0.0079510458
0.019349824
0.033130588
0.42938188
0.43288134
0.033407398
0.019515596
0.0080172043
0.0014700242
0.0014752742
0.0080855337
0.0196867
0.033693287
0.43652843
0.44033669
0.033988702
0.019863366
0.0081561108
0.0014807707
0.0014865386
0.0082290844
0.020046021
0.034294452
0.44432145
0.44850036
0.034611049
0.020234876
0.0083045061
0.0014926039
0.0014990019
0.0083824871
0.02043035
0.034939357
0.45289565
0.45753372
0.03528002
0.020632687
0.0084630831
0.0015057724
0.0015129672
0.0085463677
0.020842381
0.035634199
0.46244806
0.46768077
0.036002697
0.021059662
0.0086323485
0.0015206479
0.0015288949
0.0087209931
0.021284944
0.036386766
0.47328682
0.47933869
0.036787341
0.021518347
0.0088121801
0.0015378109
0.0015475303
0.0089057137
0.021760047
0.037205549
0.48593448
0.49320768
0.037641606
0.022009639
0.0090012963
0.0015582362
0.0015702024
0.0090984157
0.0222663
0.038094924
0.50133858
0.51057149
0.038564168
0.022529447
0.0091965794
0.0015838383
0.0015998568
0.0092974036
0.022803632
0.039054382
0.52130308
0.53426882
0.039599837
0.023107177
0.0094141975
0.0016204637
0.001649448
0.0095767529
0.02351831
0.040340288
0.55048757
0.5713476
0.041552092
0.02418542
0.0097675432
0.0016850297
0.0017388858
0.010434565
0.025856516
0.044323788
0.60559149
0.63238832
0.046355751
0.027095012
0.010993372
0.0017854075
0.0017993907
0.011354981
0.027947176
0.047628667
0.65264386
0.65563163
0.051389031
0.029876667
0.011958156
0.0017981253
0.50773542
0.063050885
0.035456176
0.013905765
0.001999575
0.0018780717
0.012305309
0.030547879
0.05304801
0.6429381
0.73355932
0.044025234
0.026390375
0.010920481
0.0017833738
0.0017570511
0.010863078
0.026608321
0.045509591
0.67527025
0.66208388
0.047999168
0.027718746
0.011172012
0.001771469
0.0017680095
0.011012876
0.027372027
0.047099475
0.63417873
0.59852973
0.042859385
0.025059913
0.01012001
0.0017163409
0.0016690996
0.0095971048
0.023587042
0.040441491
0.56674021
0.54661938
0.039313363
0.02295858
0.0093830366
0.0016319057
0.0016039278
0.009238709
0.022603657
0.038668817
0.5311503
0.51872985
0.038180993
0.022332504
0.0091324021
0.0015842148
0.001568806
0.0090395259
0.022086539
0.037737441
0.50843178
0.49952765
0.037302399
0.021843885
0.0089484347
0.0015558145
0.0015444161
0.0088562737
0.021601214
0.036873051
0.49164428
0.48455389
0.03645356
0.021360928
0.0087639275
0.0015341606
0.0015247814
0.008672426
0.021125543
0.036047231
0.47808905
0.47213006
0.035655439
0.020896528
0.0085825689
0.0015161188
0.0015080659
0.0084949546
0.020674859
0.035278826
0.46659179
0.46141006
0.03491675
0.020460638
0.0084098702
0.0015005401
0.0014934765
0.0083274826
0.020253956
0.034568797
0.45653629
0.45193199
0.034233961
0.020054492
0.0082478156
0.001486821
0.0014805282
0.0081708235
0.019862011
0.033911586
0.44756667
0.44341469
0.033600671
0.019676077
0.0080964211
0.0014745609
0.0014688872
0.0080245047
0.019496392
0.033300585
0.43945538
0.43567055
0.033010527
0.019322559
0.0079549627
0.0014634801
0.0014583158
0.0078876943
0.01915433
0.032730047
0.43204525
0.42856598
0.032458394
0.018991327
0.0078225704
0.0014533738
0.0014486368
0.0077594888
0.01883329
0.032195123
0.42522157
0.42200169
0.031939707
0.018679945
0.0076983468
0.0014440893
0.0014397179
0.0076390458
0.018531031
0.03169173
0.41889764
0.41590079
0.03145081
0.018386348
0.0075814889
0.0014355107
0.0014314563
0.0075255818
0.018245608
0.031216467
0.41300388
0.4102006
0.030988478
0.0181087
0.0074712563
0.0014275451
0.001423768
0.0074184119
0.017975298
0.030766318
0.40748478
0.40485083
0.030549905
0.017845367
0.0073669861
0.001420117
0.0014165834
0.0073168841
0.017718533
0.030338622
0.40229316
0.39980754
0.030132517
0.017594828
0.007268051
0.0014131591
0.0014098364
0.0072204066
0.017473876
0.029930944
0.39738971
0.39503824
0.029734123
0.017355792
0.0071739146
0.0014066076
0.0013582401
0.0067166536
0.016108159
0.027384546
0.44353213
0.44618004
0.027566663
0.01621817
0.0067599004
0.0013612455
0.0013643393
0.0068041884
0.016330552
0.027752697
0.44890063
0.45169805
0.027943319
0.016445747
0.0068496029
0.0013675309
0.001370828
0.0068962009
0.01656367
0.028138432
0.45457711
0.45754387
0.028338634
0.016684706
0.0069440638
0.0013742367
0.0013777648
0.0069932387
0.016808822
0.028543918
0.46060413
0.46376457
0.0287548
0.016936343
0.0070438059
0.0013814194
0.001385209
0.0070958185
0.017067283
0.028971344
0.467032
0.47041388
0.029194051
0.017201958
0.0071493626
0.0013891437
0.0013932347
0.0072045197
0.017340495
0.029423181
0.47391885
0.47755657
0.029659208
0.017483175
0.0072613782
0.0013974934
0.0014019337
0.0073200221
0.017630182
0.029902467
0.48133737
0.485273
0.03015339
0.01778177
0.0073805455
0.0014065701
0.0014114205
0.0074430276
0.017938189
0.030412479
0.48937647
0.49366259
0.030680225
0.018099698
0.0075075708
0.0014165057
0.0014218497
0.0075742606
0.0182666
0.03095722
0.49814869
0.50285445
0.031243911
0.01843911
0.0076431773
0.001427479
0.0014334256
0.0077143842
0.018617573
0.031541084
0.50780341
0.51302304
0.031849239
0.018802148
0.0077879064
0.001439728
0.0014464319
0.007863737
0.018993107
0.032169146
0.51854734
0.52441676
0.03250112
0.019190367
0.0079417457
0.0014535885
0.0014612605
0.0080216912
0.019393817
0.032845596
0.53068292
0.53740855
0.03320188
0.019602518
0.0081030096
0.0014695181
0.0014784521
0.0081847331
0.019814764
0.033568271
0.54467487
0.55259276
0.033940902
0.02002743
0.0082654452
0.001488189
0.0014989358
0.008343232
0.020236207
0.034313871
0.56131266
0.57104358
0.034680003
0.020436923
0.0084166386
0.0015111065
0.0015253636
0.0084871236
0.020628921
0.035035491
0.5821149
0.59515934
0.03539944
0.020824841
0.008563683
0.001543341
0.0015685557
0.0086687544
0.021077074
0.035857487
0.61087285
0.63007788
0.036614105
0.021514129
0.008818374
0.0016022052
0.0016492537
0.0091903037
0.02252071
0.038189228
0.6578724
0.68523399
0.041260397
0.024557456
0.010114929
0.0017134903
0.0017588237
0.010808033
0.026212498
0.043628741
0.69560406
0.65269168
0.052972851
0.030620747
0.012286041
0.0018293645
0.001819755
0.011521917
0.028435585
0.048527797
0.65111696
0.62862004
0.043599954
0.025724752
0.010501092
0.0017624791
0.0017412642
0.010426437
0.025828981
0.044453848
0.60356433
0.56760254
0.041343222
0.024008643
0.0096632374
0.0016815555
0.0016473312
0.0095087524
0.023378929
0.040142719
0.54680048
0.53074765
0.03941369
0.022982619
0.0093573332
0.0016183192
0.0015978375
0.0092509571
0.022700276
0.038895957
0.51813846
0.50780948
0.038432361
0.022444616
0.0091591001
0.0015820789
0.0015686722
0.009067709
0.022196142
0.037984734
0.49895951
0.49117093
0.037548796
0.021951137
0.0089759268
0.001556906
0.0015463757
0.0088846169
0.021710925
0.037126897
0.48419567
0.47785421
0.036720173
0.021476729
0.0087944739
0.0015368075
0.0015280196
0.0087059821
0.021249362
0.036328983
0.47201741
0.46659197
0.035952613
0.02102899
0.0086195065
0.0015198808
0.0015122924
0.0085352927
0.020815735
0.035590503
0.46151142
0.45672502
0.035241655
0.02060938
0.0084534563
0.0015051765
0.0014984739
0.0083740689
0.020409841
0.034905498
0.4521954
0.44789183
0.034581107
0.020216782
0.0082971181
0.0014921358
0.0014861215
0.0082225583
0.020029988
0.034267888
0.44379098
0.43987278
0.033964962
0.019849069
0.0081503193
0.0014803981
0.0014749404
0.00808035
0.019673862
0.033671946
0.43612136
0.43252234
0.033388198
0.019504053
0.0080125584
0.0014697247
0.0014647308
0.0079468548
0.019339396
0.033113253
0.42906405
0.42573611
0.032846546
0.019179616
0.0078831477
0.0014599411
0.0014553411
0.0078213437
0.01902445
0.032587641
0.42252914
0.41943446
0.032336187
0.018873715
0.0077613587
0.0014509178
0.0014466592
0.0077030921
0.018727121
0.032091686
0.41644453
0.41355244
0.03185389
0.018584543
0.0076464742
0.0014425539
0.0014385921
0.0075914058
0.018445647
0.03162223
0.41075159
0.40803664
0.031396631
0.018310389
0.0075378258
0.0014347644
0.0014310631
0.0074856433
0.018178434
0.03117652
0.40540153
0.40284206
0.030961962
0.018049818
0.0074348174
0.0014274809
0.0014240112
0.0073852668
0.017924167
0.030752295
0.40035264
0.39792974
0.0305477
0.017801571
0.0073369428
0.0014206466
0.0014173797
0.0072897675
0.017681613
0.030347453
0.39556937
0.3956814
0.030353264
0.01768504
0.0072910681
0.0014174315
0.0014207224
0.0073384382
0.017805336
0.030554044
0.39804331
0.40047141
0.030759587
0.017928518
0.0073869601
0.0014241069
0.001427592
0.0074366813
0.018054465
0.030969722
0.40296829
0.40553889
0.031185132
0.018183601
0.0074876856
0.0014311861
0.0014348987
0.0075400308
0.018315877
0.031405767
0.40818658
0.41091666
0.031632256
0.018451678
0.0075938104
0.0014387384
0.0014427136
0.0076490933
0.018591026
0.031864661
0.41373449
0.41664629
0.032103489
0.018734238
0.0077059558
0.0014468333
0.0014511083
0.0077644983
0.018881452
0.032349021
0.41965867
0.42277957
0.032601763
0.019032981
0.0078248131
0.0014555495
0.0014601689
0.0078869756
0.019188956
0.032861982
0.42601695
0.42938
0.033130232
0.019349706
0.0079511029
0.0014649797
0.001469998
0.0080172942
0.019515493
0.033407023
0.43287876
0.43652452
0.033692804
0.019686577
0.0080856555
0.0014752401
0.0014807267
0.008156288
0.01986328
0.033988193
0.44033061
0.44431124
0.034293684
0.02004584
0.0082292832
0.0014864801
0.0014925269
0.0083047454
0.020234645
0.034610067
0.44848381
0.45286869
0.034937861
0.020429907
0.008382748
0.0014988987
0.0015056337
0.0084633463
0.020632014
0.035277955
0.4574912
0.46238178
0.035631014
0.020841176
0.0085465738
0.0015127779
0.0015203886
0.0086324194
0.021057727
0.035998024
0.46757932
0.47313331
0.036379518
0.021281652
0.008720757
0.0015285361
0.0015373139
0.00881138
0.021513013
0.036776338
0.47911021
0.48559991
0.037188522
0.021751332
0.0089039365
0.0015468434
0.0015572968
0.008997932
0.021995817
0.037615636
0.49272771
0.50066694
0.038055739
0.022244856
0.0090927045
0.0015689488
0.0015822438
0.0091879327
0.022497724
0.038507165
0.50966039
0.52010754
0.038975312
0.022759177
0.0092862835
0.001597978
0.0016182453
0.009400852
0.023050681
0.03949813
0.53277296
0.54874266
0.040213297
0.02344668
0.0095619175
0.0016472016
0.001684812
0.0097849119
0.024123677
0.041438561
0.56968654
0.60354421
0.044119331
0.025749961
0.010389531
0.0017342186
0.001787019
0.011074874
0.027303492
0.046931151
0.63287575
0.65094215
0.046000264
0.027085536
0.01105586
0.001771244
1.5330594
2.6661507
1.9399396
0.69757857
0.043716617
0.026211609
0.010782518
0.0017607044
0.0017890737
0.011351176
0.028245252
0.049019472
0.65968813
0.0019609732
0.013468741
0.034215224
0.060629182
0.50422017
0.43688811
0.057156101
0.032252354
0.01270346
0.0018835641
0.0018885576
0.012644809
0.032185181
0.057120846
0.43454988
0.57938835
0.054779909
0.031183191
0.012436113
0.001858549
1.0506548
1.2611674
2.4532539
1.9545927
8.1697345
8.2621795
8.232169
8.1696905
8.1155381
8.1752063
8.1830918
8.1291915
0.0014066569
0.007174617
0.017357596
0.029737271
0.39504503
0.39739951
0.029933834
0.017475566
0.0072210317
0.0014098752
0.0014131911
0.0072686176
0.017596244
0.030134901
0.39981834
0.4023033
0.030340965
0.017719953
0.0073174215
0.0014166108
0.0014201412
0.0073674824
0.017846588
0.030551904
0.40485891
0.40749023
0.030768285
0.017976519
0.0074188849
0.0014237895
0.0014275642
0.0074716825
0.018109747
0.03099016
0.41020263
0.41300222
0.031218081
0.018246629
0.0075259819
0.0014314742
0.0014355277
0.0075818562
0.018387249
0.031452225
0.41589546
0.41888858
0.031693065
0.0185319
0.0076393931
0.0014397348
0.0014441062
0.0076986661
0.018680718
0.031940889
0.42198885
0.42520457
0.032196136
0.01883398
0.0077597763
0.0014486531
0.0014533904
0.0078228342
0.018991946
0.032459272
0.42854469
0.432019
0.032730761
0.019154872
0.0078879385
0.0014583331
0.0014634978
0.0079551927
0.019323047
0.033011156
0.4356392
0.43941854
0.033300922
0.019496739
0.0080247037
0.0014689041
0.001474577
0.0080966001
0.019676344
0.033600833
0.44337259
0.44751941
0.033911474
0.019862148
0.0081709888
0.0014805425
0.0014868345
0.0082479953
0.020054611
0.034233772
0.451881
0.45648319
0.034568359
0.020253989
0.0083276979
0.0014934899
0.0015005545
0.008410158
0.020460727
0.034916305
0.46135871
0.46654827
0.035278327
0.020675011
0.0084953785
0.0015080839
0.0015161458
0.0085832501
0.020897048
0.035655359
0.47210446
0.47809656
0.036047736
0.021126588
0.0086735113
0.0015248264
0.001534242
0.0087657214
0.021363183
0.036455661
0.484619
0.49180455
0.036878251
0.021605717
0.00885931
0.0015445673
0.0015560932
0.0089537033
0.021853016
0.037314296
0.49983774
0.50896809
0.037762628
0.02210455
0.0090487044
0.0015692926
0.0015850385
0.0091487573
0.022367919
0.038233637
0.51961033
0.53256153
0.038778704
0.022673054
0.0092676748
0.0016053349
0.0016338795
0.0094332817
0.023102688
0.039546214
0.54883182
0.56994329
0.040840238
0.023819357
0.0096441805
0.0016687177
0.0017221934
0.010373432
0.02559692
0.043808612
0.6042806
0.63003963
0.044835839
0.02628675
0.010657447
0.0017417196
0.0017830683
0.011300612
0.028147179
0.048858475
0.65548245
0.044525277
0.026651305
0.011055982
0.0017907938
0.0017572282
0.010469851
0.025076495
0.041664831
0.71679952
0.62074705
0.047537551
0.027523898
0.011140909
0.0018141516
0.0018582418
0.012340984
0.030991407
0.05481615
0.57387123
0.66924662
0.046407174
0.02698602
0.011023729
0.0017648911
0.0017830417
0.011299957
0.028145855
0.048856581
0.65561764
0.63011815
0.044835122
0.026285783
0.010656926
0.0017417325
0.0017221999
0.010372701
0.025595356
0.043806599
0.60432204
0.56996338
0.040836941
0.023817375
0.0096433969
0.001668711
0.0016338569
0.0094321018
0.023099938
0.039541895
0.54883348
0.53255163
0.038774163
0.022670191
0.0092664792
0.0016053051
0.0015850058
0.0091475902
0.022365105
0.03822913
0.51959028
0.50893913
0.037757937
0.022101623
0.009047481
0.0015692547
0.0015560488
0.0089524334
0.02184997
0.037309416
0.49980182
0.49176378
0.036873289
0.021602634
0.0088580292
0.0015445187
0.0015341894
0.0087644311
0.021360075
0.03645066
0.48457561
0.47805149
0.036042765
0.021123511
0.008672237
0.0015247706
0.0015160889
0.008582012
0.020894042
0.03565049
0.47205884
0.4665025
0.035273585
0.020672091
0.0084941789
0.0015080271
0.0015004985
0.0084090018
0.020457899
0.034911705
0.46131359
0.45643883
0.034563853
0.02025123
0.0083265711
0.0014934343
0.0014867802
0.0082469018
0.020051915
0.034229359
0.45183767
0.44747702
0.033907164
0.019859519
0.0081699219
0.0014804898
0.0014745255
0.008095553
0.019673763
0.033596617
0.44333102
0.43937723
0.033296693
0.019494156
0.0080236567
0.001468854
0.0014634478
0.0079541472
0.019320465
0.033006932
0.43559795
0.43197734
0.032726566
0.019152301
0.0078869002
0.0014582839
0.0014533418
0.0078217933
0.018989371
0.032455071
0.42850237
0.42516136
0.032191878
0.018831384
0.0077587328
0.0014486042
0.0014440564
0.0076976019
0.018678065
0.031936532
0.42194451
0.41884264
0.031688651
0.018529204
0.0076383081
0.0014396833
0.0014354755
0.0075807681
0.01838453
0.031447765
0.41584797
0.41295272
0.03121356
0.018243868
0.0075248764
0.0014314208
0.00142751
0.0074705651
0.018106938
0.030985536
0.41015069
0.40743599
0.030763554
0.017973646
0.0074177396
0.0014237332
0.0014200825
0.0073663237
0.017843663
0.030547057
0.40480266
0.40224551
0.030336015
0.017716967
0.007316245
0.00141655
0.0014131272
0.0072674175
0.017593186
0.03012979
0.39975909
0.39733977
0.029928544
0.017472416
0.0072198042
0.0014098076
0.001406584
0.0071733154
0.017354214
0.029731513
0.39498261
0.39268829
0.029539308
0.017238969
0.0071280272
0.0014034482
0.39561783
0.030352257
0.017684513
0.0072908971
0.0014174338
0.001420697
0.0073379522
0.017804097
0.030551921
0.39797444
0.40039514
0.030756615
0.017926769
0.0073862711
0.0014240597
0.001427527
0.0074357934
0.018052243
0.030965968
0.40288167
0.40543868
0.031180608
0.018180921
0.0074866153
0.0014311067
0.0014348046
0.0075387627
0.01831271
0.031400427
0.40807067
0.41078258
0.031626036
0.018447983
0.0075923281
0.0014386293
0.0014425884
0.0076473691
0.018586744
0.031857469
0.41357992
0.41646872
0.032095203
0.018729298
0.0077039651
0.0014466903
0.0014509459
0.007762187
0.018875754
0.032339479
0.41945515
0.42254606
0.032590832
0.019026437
0.0078221513
0.0014553661
0.0014599623
0.0078839209
0.019181495
0.032849551
0.42574992
0.42907484
0.033116095
0.019341195
0.007947596
0.0014647496
0.0014697423
0.0080132837
0.019505819
0.033391
0.43253048
0.43612734
0.03367465
0.019675569
0.0080810559
0.0014749565
0.0014804141
0.0081510147
0.019850756
0.033967626
0.43987763
0.44379486
0.03427043
0.020031625
0.0082232486
0.0014861368
0.0014921521
0.0082978222
0.020218502
0.034583806
0.44789531
0.45219877
0.034908246
0.020411599
0.0083748083
0.0014984928
0.0015051979
0.0084542371
0.020611271
0.035244619
0.45672942
0.46151671
0.035593529
0.020817703
0.0085361326
0.0015123173
0.0015199087
0.0086204332
0.02103119
0.035955997
0.46659827
0.47202409
0.03633251
0.021251682
0.0087069858
0.0015280492
0.0015368394
0.008795574
0.021479295
0.036724053
0.47786085
0.48420083
0.037130926
0.021713636
0.0088858206
0.0015464087
0.0015569387
0.0089772608
0.021954136
0.037553183
0.49117312
0.49895583
0.037989284
0.022199327
0.00906917
0.0015687037
0.0015821101
0.0091607399
0.022448129
0.038437264
0.50779645
0.51811039
0.038901118
0.022704076
0.009252812
0.0015978678
0.001618345
0.0093594724
0.022986985
0.039419508
0.53069742
0.54671705
0.040149435
0.023384112
0.0095113225
0.0016473491
0.0016815695
0.0096662451
0.024014567
0.041350858
0.56746392
0.60332142
0.044462977
0.025834788
0.010429193
0.0017412625
0.0017623979
0.010503109
0.025727762
0.043602648
0.62832065
0.65071265
0.048527257
0.028436473
0.011522415
0.0018197757
0.001829674
0.01228194
0.030629184
0.052994312
0.6522436
0.69513328
0.043646696
0.026222679
0.010812057
0.0017589657
0.0017714241
0.011180699
0.027737044
0.048030569
0.66155581
0.65692717
0.046789349
0.027134485
0.010971271
0.0017571124
0.0017147308
0.010229852
0.024675101
0.040819102
0.69316755
0.65047134
0.045995756
0.027083739
0.011053725
0.0017712613
0.0017993213
0.011348297
0.027938368
0.047614693
0.65227781
0.69718298
0.043706458
0.026204672
0.010777143
0.0017606891
0.0017888863
0.011343979
0.028233289
0.049001848
0.65948308
0.63254255
0.04409045
0.025892
0.010505006
0.0017370173
0.0017176944
0.010299789
0.025433249
0.043577241
0.60653463
0.57198557
0.040845458
0.023806013
0.0096319898
0.0016670473
0.0016330935
0.0094245144
0.023094898
0.039554922
0.55009845
0.53341296
0.038782571
0.022667661
0.0092625254
0.0016049189
0.0015848433
0.0091464352
0.022365882
0.038237506
0.52024068
0.509468
0.037767443
0.022104877
0.0090481056
0.0015692239
0.0015560999
0.0089541484
0.021855041
0.037320289
0.50025585
0.4921659
0.036885155
0.021608866
0.0088603706
0.0015446233
0.0015343265
0.0087670818
0.021366876
0.036462908
0.48493568
0.47837395
0.036054811
0.021130387
0.0086749577
0.0015249238
0.0015162448
0.0085846465
0.020900671
0.035661922
0.47234651
0.46675802
0.0352842
0.020678307
0.0084966574
0.0015081783
0.0015006407
0.0084112801
0.020463613
0.034921401
0.46153953
0.45663786
0.034572622
0.02025642
0.0083286434
0.0014935653
0.0014868994
0.0082487678
0.020056594
0.034237243
0.45201257
0.44763058
0.033914226
0.01986372
0.0081715989
0.0014805975
0.001474622
0.008097052
0.019677523
0.033602931
0.44346559
0.43949555
0.033302393
0.019497564
0.008025019
0.0014689406
0.0014635257
0.0079553693
0.019323524
0.03301204
0.43570195
0.43206878
0.032731136
0.019155039
0.0078879904
0.0014583536
0.0014534041
0.007822774
0.018991826
0.032459158
0.42858286
0.42523231
0.032195544
0.018833584
0.007759608
0.0014486601
0.0014441062
0.0076983847
0.018680037
0.031939828
0.42200697
0.41889793
0.031691656
0.018531004
0.0076390253
0.0014397291
0.0014355166
0.0075814148
0.018386162
0.031450486
0.41589676
0.41299611
0.031216017
0.018245352
0.0075254695
0.0014314576
0.0014275421
0.007471089
0.018108265
0.030987745
0.4101894
0.40747067
0.030765545
0.017974846
0.0074182157
0.0014237615
0.0014201076
0.0073667528
0.017844745
0.030548858
0.40483416
0.40227426
0.030337636
0.017717944
0.0073166318
0.001416572
0.001413146
0.0072677681
0.017594072
0.030131258
0.39978587
0.39736534
0.029929872
0.017473224