/*--------------------------------*- C++ -*----------------------------------*\
  =========                 |
  \\      /  F ield         | OpenFOAM: The Open Source CFD Toolbox
   \\    /   O peration     | Website:  https://openfoam.org
    \\  /    A nd           | Version:  7
     \\/     M anipulation  |
\*---------------------------------------------------------------------------*/
FoamFile
{
    version     2.0;
    format      ascii;
    class       volScalarField;
    location    "400";
    object      nut;
}
// * * * * * * * * * * * * * * * * * * * * * * * * * * * * * * * * * * * * * //

dimensions      [0 2 -1 0 0 0 0];

internalField   nonuniform List<scalar> 
24789
(
0.0012052344
0.0061730377
0.014967991
0.025694424
0.33512716
0.33709367
0.025862375
0.015068593
0.0062125613
0.0012079871
0.0012108156
0.0062529953
0.015171271
0.026033767
0.33911165
0.34118367
0.026209219
0.015276407
0.0062944175
0.001213728
0.0012167304
0.0063368758
0.015383943
0.026388647
0.34331335
0.34550418
0.026572592
0.015494215
0.0063804411
0.0012198298
0.001223033
0.006425162
0.015607193
0.026761035
0.34776004
0.35008503
0.026954482
0.015723182
0.0064711065
0.0012263474
0.0012297815
0.0065183356
0.015842209
0.027152994
0.35248406
0.35496203
0.02735699
0.015964534
0.0065669206
0.0012333428
0.00123704
0.0066169341
0.016090273
0.027566693
0.35752474
0.36017807
0.027782549
0.01621969
0.0066684582
0.0012408837
0.0012448854
0.0067215687
0.01635294
0.02800486
0.36292865
0.36578393
0.028234014
0.016490251
0.0067763514
0.001249057
0.0012534129
0.0068328882
0.016631837
0.028470397
0.36875243
0.37184316
0.02871448
0.016777952
0.0068912751
0.0012579688
0.0012627437
0.0069515944
0.016928873
0.028966812
0.37506699
0.37843625
0.029227794
0.017084801
0.0070139283
0.001267759
0.0012730413
0.0070783644
0.017246065
0.029498085
0.38196571
0.38567248
0.029778232
0.017412896
0.0071449699
0.0012786204
0.0012845326
0.0072138004
0.017585654
0.030069082
0.38957817
0.39370955
0.030371215
0.017764527
0.0072848869
0.0012908225
0.0012975447
0.0073582072
0.017949828
0.030685557
0.39810054
0.40279518
0.031012734
0.018141626
0.0074336811
0.001304766
0.0013125726
0.0075111274
0.018340082
0.031353726
0.40785251
0.41335252
0.031708899
0.018544902
0.0075902319
0.0013210726
0.0013304016
0.0076704866
0.01875545
0.032078172
0.41940434
0.42616169
0.032460169
0.0189703
0.0077511235
0.0013407678
0.0013524976
0.0078311644
0.01918822
0.032853202
0.43384521
0.44275032
0.033254536
0.019408085
0.0079096598
0.0013659758
0.0013825651
0.0079921619
0.019632884
0.033675396
0.45337782
0.4671601
0.034252412
0.01993605
0.0081048362
0.0014065752
0.0014412559
0.0082605464
0.020506122
0.035314688
0.48634989
0.51547065
0.03732109
0.021768094
0.0087989626
0.0014808378
0.0015065739
0.0090763234
0.022285532
0.037917544
0.53637184
0.55302472
0.040384389
0.023695878
0.0096208606
0.0015341435
0.0015221138
0.0100672
0.025104111
0.043146568
0.55176405
0.58994312
0.037191544
0.022296969
0.0091822189
0.001500408
0.0014660801
0.0087593106
0.021368547
0.036104696
0.58226015
0.56152482
0.033021403
0.019493528
0.0079491414
0.0014172295
0.0013771156
0.0076076336
0.01857208
0.031555494
0.53967309
0.52276995
0.030786733
0.018117985
0.0074543115
0.0013437254
0.0013212851
0.0073516024
0.017870006
0.030352031
0.50925035
0.4980804
0.030015803
0.017683561
0.007277931
0.0013056541
0.0012928687
0.0072097101
0.017500788
0.029684744
0.48837061
0.47978654
0.029348989
0.017313903
0.0071403882
0.0012818658
0.0012721702
0.0070688845
0.017124085
0.029013209
0.47211289
0.46516049
0.028681325
0.016933436
0.0069959696
0.0012634135
0.0012553951
0.0069230691
0.016745216
0.028357779
0.4587976
0.45292745
0.028044964
0.016561459
0.0068511804
0.0012480048
0.0012411597
0.0067809434
0.016383369
0.027744053
0.44747559
0.44238271
0.02745487
0.016211279
0.0067127149
0.0012347913
0.0012288423
0.0066466296
0.016045283
0.027177117
0.43760112
0.43309186
0.026909967
0.015885128
0.0065827256
0.0012232632
0.001218011
0.0065209718
0.015730652
0.026652938
0.4288238
0.42477088
0.026405231
0.015581522
0.0064613241
0.0012130509
0.0012083527
0.006403688
0.015437493
0.026166327
0.42091182
0.41722801
0.025935551
0.015298232
0.0063479777
0.0012038889
0.0011996389
0.0062941117
0.015163528
0.025712517
0.41370415
0.41032627
0.02549665
0.015033088
0.0062419837
0.0011955825
0.0011917039
0.006191521
0.014906678
0.025287525
0.40708296
0.40396352
0.02508476
0.014784085
0.0061426247
0.001187989
0.0011844242
0.0060952187
0.014665083
0.024887981
0.40095898
0.39806088
0.024696906
0.014549528
0.0060492363
0.001181
0.0011777052
0.0060045795
0.01443714
0.024511082
0.39526169
0.39255511
0.024330351
0.014327849
0.0059612026
0.0011745315
0.0011714708
0.0059190192
0.014221384
0.024154279
0.38993469
0.38739507
0.023982849
0.01411774
0.0058779889
0.0011685152
0.0011656579
0.0058380345
0.014016606
0.023815546
0.38493059
0.38253625
0.023652415
0.013918017
0.00579911
0.001162892
0.0011602107
0.0057611377
0.013821617
0.023492869
0.38020714
0.37793878
0.023337018
0.013727467
0.0057240668
0.0011576066
0.0011550711
0.0056879219
0.013635379
0.023184475
0.3757308
0.37803519
0.023341706
0.01373031
0.0057251846
0.0011576648
0.0011602773
0.005762341
0.013824673
0.023497922
0.38030877
0.3826459
0.023657866
0.013921321
0.0058004168
0.0011629665
0.0011657381
0.0058394375
0.014020141
0.023821391
0.38504892
0.38752259
0.023989072
0.014121512
0.0058794883
0.0011686005
0.0011715614
0.0059206209
0.014225405
0.024160914
0.3900724
0.39270484
0.024337446
0.014332156
0.0059629196
0.001174629
0.0011778097
0.0060064351
0.01444177
0.024518704
0.39542555
0.39824072
0.024705115
0.014554516
0.0060512372
0.0011811118
0.0011845448
0.0060973962
0.014670494
0.024896888
0.40115757
0.40418388
0.02509444
0.014789968
0.0061449953
0.0011881187
0.0011918448
0.0061941069
0.014913079
0.025298043
0.40732824
0.41060051
0.025508152
0.015040104
0.0062448308
0.001195736
0.0011998066
0.0062972493
0.01517126
0.025725191
0.41401159
0.41757379
0.025949567
0.015306783
0.0063514566
0.0012040735
0.0012085554
0.0064075434
0.015446948
0.0261818
0.42130115
0.42520973
0.026422386
0.015592018
0.0064656122
0.0012132749
0.0012182581
0.0065257636
0.015742353
0.026672042
0.42931825
0.43364852
0.026931266
0.015898184
0.006588082
0.0012235355
0.001229142
0.0066526367
0.016059873
0.02720084
0.43822627
0.44308173
0.027481272
0.016227556
0.006719435
0.0012351172
0.0012415104
0.0067884494
0.016401486
0.027773337
0.4482524
0.45378326
0.028077276
0.016581508
0.0068595108
0.0012483764
0.0012557799
0.0069322521
0.016767229
0.02839311
0.45973046
0.46616273
0.028719364
0.016957239
0.007005956
0.0012637972
0.0012725298
0.0070794741
0.01714906
0.029052879
0.47316805
0.48086591
0.029387905
0.017338689
0.0071511986
0.0012821665
0.0012930744
0.0072199591
0.017522649
0.029718262
0.48942938
0.49906266
0.030037366
0.017698683
0.0072865475
0.0013057962
0.001321413
0.00735695
0.017871928
0.030351583
0.51005203
0.52320638
0.030754261
0.018096272
0.007452302
0.0013437071
0.0013786573
0.007630123
0.018575553
0.031575216
0.54034546
0.56294628
0.033263664
0.019606387
0.0079729996
0.0014227336
0.0014599871
0.0087876815
0.021477334
0.036592434
0.5835971
0.59165208
0.034877268
0.021087991
0.008745304
0.0014661222
0.0015063002
0.0099507903
0.024834968
0.042575183
0.55252731
0.55999298
0.039869994
0.023121643
0.0093482187
0.0014976466
0.0015204118
0.0096231297
0.023977769
0.041533961
0.5378817
0.51408785
0.037404071
0.021902592
0.0088293247
0.0014872937
0.001441193
0.0083442425
0.020495422
0.035069619
0.48836986
0.46968048
0.033847933
0.019791635
0.0080921072
0.0014018863
0.0013756277
0.0079426609
0.019429639
0.03321156
0.45589635
0.4448992
0.032749974
0.019166333
0.0078382847
0.0013575445
0.0013431858
0.0077481995
0.018929727
0.032331538
0.43563103
0.42762805
0.031929945
0.018702902
0.0076622855
0.0013311277
0.0013206565
0.0075776079
0.018481265
0.031540883
0.42058609
0.41428122
0.031164879
0.018264797
0.007494087
0.0013112966
0.0013027878
0.0074122877
0.018054901
0.030803703
0.40855842
0.4033075
0.030457799
0.017852288
0.0073326424
0.001294976
0.0012877502
0.0072554427
0.017657261
0.030126947
0.39844657
0.39391412
0.029810187
0.017469657
0.0071808435
0.0012810275
0.0012747418
0.0071088705
0.017289287
0.029506751
0.38966375
0.38565827
0.029215499
0.017115682
0.007039466
0.0012688392
0.0012632764
0.0069725648
0.016948559
0.028935706
0.38186884
0.37827136
0.028666374
0.016787441
0.0069080474
0.0012580167
0.0012530284
0.0068458045
0.016632031
0.028406898
0.37484646
0.37157728
0.028156444
0.016481904
0.0067857067
0.0012482845
0.0012437625
0.0067276339
0.016336761
0.027914484
0.36844966
0.36545128
0.027680408
0.016196289
0.0066714807
0.0012394433
0.0012353098
0.0066171398
0.016060224
0.027453769
0.36257169
0.35980158
0.027234081
0.015928311
0.0065645147
0.0012313476
0.001227544
0.0065135078
0.015800292
0.027020916
0.35713277
0.354558
0.026813969
0.015676006
0.0064640423
0.0012238874
0.0012203672
0.0064160209
0.015555171
0.02661278
0.35207083
0.34966506
0.026417149
0.015437686
0.0063693811
0.0012169749
0.001213702
0.0063240378
0.015323268
0.026226602
0.34733526
0.34507644
0.026041071
0.015211875
0.006279931
0.0012105412
0.0012074847
0.0062369758
0.015103175
0.025860002
0.34288356
0.34075271
0.025683423
0.01499719
0.0061951201
0.0012045251
0.0012016552
0.006154295
0.01489359
0.025510776
0.33867997
0.33666403
0.025342267
0.014792492
0.0061144803
0.0011988698
0.001208112
0.0062143593
0.01507309
0.0258699
0.33718384
0.33920861
0.026041179
0.015175712
0.0062547339
0.0012109288
0.0012138361
0.0062961566
0.015280765
0.02621649
0.3412888
0.34342715
0.026396304
0.015388543
0.0063386809
0.0012168387
0.0012199419
0.0063823315
0.015498957
0.026580497
0.34562758
0.34789434
0.026769546
0.015612303
0.0064271747
0.0012231519
0.001226475
0.0064732526
0.015728567
0.02696346
0.35023184
0.35264523
0.02716271
0.015848041
0.0065206455
0.0012299188
0.0012334921
0.006569418
0.015970796
0.027367429
0.35513964
0.35772093
0.027578082
0.016097104
0.0066196521
0.0012372033
0.0012410622
0.0066714101
0.01622709
0.027794905
0.36039608
0.363172
0.028018321
0.016361011
0.0067247941
0.0012450811
0.0012492729
0.006779891
0.01649909
0.02824875
0.3660566
0.36905874
0.028486645
0.016641581
0.0068367953
0.0012536522
0.0012582351
0.0068956105
0.016788755
0.028732504
0.37218875
0.37545849
0.028986748
0.016940836
0.0069564132
0.001263041
0.0012680927
0.0070193391
0.017098206
0.029250098
0.37888136
0.38247285
0.029523046
0.01726108
0.007084447
0.001273415
0.0012790404
0.0071518457
0.017429847
0.029806381
0.38625244
0.39024331
0.030100721
0.017604756
0.0072216004
0.0012850057
0.0012913585
0.0072937929
0.017786276
0.030407129
0.39447482
0.39898391
0.030726378
0.017974653
0.0073684511
0.0012981548
0.0013054664
0.0074455693
0.018170297
0.031059633
0.40381879
0.40904328
0.031407819
0.018373382
0.0075250717
0.0013133853
0.0013220291
0.0076068129
0.018584121
0.031772016
0.41474336
0.42103404
0.032152368
0.018802133
0.007690519
0.001331549
0.0013421815
0.0077757796
0.019026809
0.032548564
0.42807541
0.43609713
0.032960715
0.019258334
0.0078624277
0.001354314
0.0013684522
0.0079513578
0.019499532
0.033391343
0.445409
0.45650182
0.033859666
0.019760176
0.0080515207
0.001386036
0.0014112185
0.0081934312
0.020119897
0.03450818
0.47068431
0.48996024
0.035686043
0.020774578
0.0083911608
0.0014478577
0.001490624
0.0089420175
0.022153486
0.037968084
0.51794444
0.53855023
0.039442193
0.023053389
0.0093536066
0.0015192057
0.0015361916
0.009692052
0.023851973
0.040645362
0.55646732
0.55631808
0.043602975
0.025353952
0.010149969
0.0015267327
0.42970961
0.053271488
0.029948729
0.011743331
0.0016884462
0.0015860899
0.010392431
0.025799328
0.044807804
0.54448779
0.62228623
0.037340415
0.02238521
0.0092639549
0.0015131145
0.0014930038
0.0092292918
0.022604329
0.038658977
0.57377088
0.56351657
0.040834596
0.023580701
0.0095043745
0.0015071599
0.0015065253
0.0093822897
0.023316601
0.04011905
0.54016662
0.51260647
0.036776337
0.021508757
0.0086880577
0.0014740767
0.0014325924
0.0082364203
0.020241464
0.034701485
0.48583662
0.46735958
0.033631049
0.019642086
0.0080282355
0.0013963056
0.001371967
0.0079018552
0.019330663
0.033065533
0.45388035
0.44322797
0.032645125
0.019096915
0.0078103195
0.0013550789
0.0013414364
0.0077280805
0.018879633
0.032254071
0.43427624
0.42653618
0.031871314
0.018665686
0.0076474869
0.0013298512
0.0013197049
0.00756649
0.018453051
0.031495768
0.41970662
0.41357208
0.031129769
0.018243103
0.0074855923
0.0013105746
0.0013022299
0.007405644
0.018037897
0.030775947
0.40798402
0.4028388
0.030435473
0.017838692
0.0073273351
0.0012945367
0.0012873996
0.0072511486
0.01764625
0.030108763
0.3980615
0.39359553
0.029795153
0.017460588
0.0071773032
0.001280744
0.0012745104
0.0071059165
0.017281725
0.029494189
0.38939823
0.38543571
0.029204925
0.017109336
0.0070369873
0.0012686491
0.0012631185
0.0069704592
0.01694318
0.028926736
0.38168126
0.37811233
0.028658702
0.016782843
0.0069062422
0.0012578837
0.0012529153
0.0068442347
0.016628041
0.028400237
0.37471082
0.37146076
0.028150609
0.016478407
0.006784329
0.0012481881
0.0012436799
0.0067264282
0.016333706
0.027909395
0.36834906
0.36536389
0.027675926
0.016193595
0.0066704147
0.0012393718
0.0012352476
0.0066161928
0.016057835
0.027449792
0.36249549
0.35973483
0.027230521
0.015926177
0.0065636689
0.001231293
0.0012274956
0.0065127529
0.015798385
0.027017736
0.35707428
0.35450636
0.026811097
0.015674282
0.0064633585
0.0012238443
0.0012203288
0.0064154
0.015553608
0.026610177
0.35202472
0.34962386
0.026414774
0.015436262
0.0063688165
0.0012169401
0.0012136701
0.006323519
0.015321961
0.026224429
0.34729843
0.34504355
0.026039062
0.015210666
0.0062794519
0.0012105114
0.0012074561
0.0062365315
0.015102054
0.02585814
0.34285439
0.34072726
0.025681693
0.014996149
0.0061947096
0.0012044971
0.0012016273
0.006153915
0.014892624
0.025509165
0.33865845
0.33664661
0.025340735
0.014791573
0.0061141159
0.0011988399
0.0011576423
0.0057245209
0.013728522
0.023338711
0.37797171
0.38023703
0.02349458
0.01382268
0.0057615512
0.0011602398
0.0011629153
0.0057994827
0.01391889
0.02365384
0.38256479
0.38495865
0.023817065
0.014017533
0.0058383896
0.001165677
0.001168532
0.0058783225
0.014118541
0.023984182
0.38742279
0.38996246
0.02415571
0.014222247
0.0059193533
0.0011714859
0.0011745458
0.0059615241
0.014328629
0.02433165
0.39258269
0.39528928
0.024512454
0.014437971
0.0060049067
0.0011777181
0.0011810108
0.0060495489
0.01455029
0.024698185
0.39808816
0.4009858
0.024889285
0.014665864
0.0060955283
0.0011844331
0.0011879953
0.0061429181
0.014784813
0.02508599
0.40398974
0.40710839
0.025288723
0.014907386
0.0061917988
0.0011917082
0.0011955844
0.0062422474
0.015033751
0.02549779
0.41035075
0.41372708
0.02571358
0.015164143
0.0062943508
0.0011996377
0.0012038843
0.0063481835
0.015298789
0.02593655
0.41724878
0.42092879
0.02616715
0.01543793
0.0064038416
0.001208344
0.0012130384
0.0064614072
0.015581846
0.026405918
0.42478227
0.42882649
0.026653278
0.015730746
0.0065209597
0.0012179923
0.001223235
0.0065825652
0.015884953
0.026909945
0.43308208
0.43757316
0.027176399
0.016044634
0.006646259
0.0012288018
0.0012347338
0.0067120497
0.016210057
0.027453356
0.44232958
0.44738693
0.027741153
0.016381191
0.0067798425
0.0012410777
0.0012478893
0.0068494474
0.016557983
0.028040231
0.45279067
0.4585963
0.028350096
0.016739685
0.0069204021
0.0012552312
0.0012631804
0.0069918932
0.016924883
0.028669381
0.46487562
0.47172439
0.028994728
0.017110871
0.0070626937
0.0012718412
0.0012814089
0.007131212
0.017294074
0.029321304
0.47927908
0.48774124
0.029643974
0.017471464
0.0071963817
0.001292244
0.0013048382
0.0072590348
0.017641522
0.029957886
0.49736233
0.5085302
0.030270958
0.017810143
0.0073248394
0.0013202063
0.0013421454
0.0074172047
0.018032565
0.030674743
0.52224912
0.53999437
0.031416533
0.018462349
0.0075682527
0.0013752549
0.0014156452
0.0078856288
0.019318933
0.03275127
0.56294035
0.58428639
0.035174155
0.020935521
0.0086235103
0.0014611106
0.0015034089
0.0092348937
0.022390621
0.037257544
0.59272392
0.55377981
0.044801464
0.025888113
0.010384146
0.0015457895
0.0015514411
0.0098213011
0.024235347
0.041355511
0.55455734
0.53668331
0.037250896
0.021981581
0.008974062
0.0015065765
0.0014874846
0.0089063105
0.02206288
0.037971851
0.51562153
0.48677034
0.03553096
0.020638752
0.0083087855
0.0014462598
0.0014095487
0.0081360279
0.02000234
0.034341784
0.46755605
0.45348718
0.033700495
0.019653795
0.00800299
0.0013842223
0.0013667857
0.0079119619
0.019411852
0.033256893
0.44270626
0.43374205
0.032849202
0.019186587
0.0078307402
0.0013528775
0.0013409381
0.0077498669
0.018967566
0.032455473
0.42604772
0.41929906
0.032074066
0.018752806
0.0076691457
0.0013304718
0.0013210968
0.0075890661
0.018542759
0.031705744
0.4132631
0.40778024
0.031351278
0.018338375
0.0075101941
0.0013125764
0.0013047614
0.0074329677
0.01814039
0.03101103
0.40273932
0.3980585
0.030684274
0.017948888
0.0073576772
0.0012975371
0.0012908151
0.0072845056
0.017763901
0.030370409
0.39367912
0.38955661
0.030068489
0.01758519
0.0072135297
0.0012845256
0.0012786147
0.0071447894
0.017412631
0.02977794
0.38565809
0.38195656
0.029497897
0.017245892
0.0070782548
0.0012730374
0.001267756
0.0070138693
0.017084749
0.029227788
0.37843148
0.37506522
0.02896681
0.016928836
0.0069515591
0.0012627401
0.0012579656
0.0068912661
0.016777981
0.028714584
0.37184382
0.36875466
0.028470523
0.016631892
0.0068329013
0.0012534103
0.0012490553
0.0067763784
0.016490338
0.028234195
0.36578749
0.36293322
0.028005089
0.016353064
0.0067216113
0.0012448842
0.0012408832
0.0066685131
0.016219831
0.027782807
0.36018364
0.35753115
0.027567028
0.01609047
0.0066170064
0.0012370403
0.0012333442
0.0065670001
0.015964721
0.027357312
0.35496917
0.35249168
0.027153426
0.015842468
0.0065184307
0.0012297846
0.0012263521
0.006471209
0.015723416
0.026954874
0.35009291
0.34776824
0.02676158
0.015607522
0.0064252808
0.0012230385
0.0012198366
0.0063805652
0.015494493
0.026573047
0.34551239
0.34332171
0.026389318
0.015384356
0.0063370252
0.0012167397
0.0012137417
0.0062945891
0.015276785
0.026209824
0.34119136
0.33911826
0.026034709
0.015171853
0.0062532135
0.0012108361
0.0012080163
0.006212831
0.015069203
0.025863355
0.33709894
0.33719354
0.025868212
0.015072065
0.0062139138
0.001208055
0.0012108947
0.0062544599
0.015174999
0.026040013
0.33921415
0.34129162
0.026215925
0.015280423
0.0062960015
0.0012138168
0.0012168271
0.0063385795
0.015388239
0.026395808
0.34342825
0.34562833
0.026580249
0.015498812
0.0063822679
0.0012199335
0.0012231441
0.0064271177
0.015612104
0.026769214
0.34789482
0.35023229
0.02696325
0.01572845
0.0064732111
0.0012264669
0.0012299093
0.0065206089
0.015847873
0.027162415
0.35264541
0.3551396
0.027367159
0.015970652
0.0065693806
0.0012334799
0.0012371881
0.0066196138
0.016096912
0.027577729
0.35772059
0.36039527
0.027794572
0.016226929
0.0066713916
0.0012410443
0.0012450594
0.006724784
0.016360828
0.028017937
0.36317064
0.36605467
0.028248315
0.016498899
0.0067798959
0.0012492456
0.001253618
0.0068368183
0.016641382
0.028486165
0.36905615
0.37218496
0.0287319
0.016788518
0.0068956501
0.0012581918
0.001262986
0.0069564851
0.016940599
0.028986076
0.37545274
0.37887201
0.029249161
0.017097857
0.0070194143
0.0012680221
0.0012733243
0.007084537
0.017260647
0.029521867
0.38245797
0.38622855
0.029804697
0.017429187
0.0071519316
0.0012789225
0.001284852
0.007221662
0.017603848
0.030098472
0.39020598
0.39441704
0.030403835
0.017784851
0.0072937761
0.0012911555
0.001297885
0.0073682855
0.017972536
0.030721714
0.3988959
0.40368609
0.03105266
0.018166946
0.0074451057
0.0013051042
0.0013128975
0.0075240891
0.018368209
0.031397522
0.40884626
0.41445537
0.031756462
0.018575985
0.0076049611
0.0013213719
0.0013306712
0.0076872861
0.01878958
0.032129092
0.42062153
0.42749867
0.032513959
0.019007718
0.0077705322
0.001341034
0.0013528775
0.0078546689
0.019230434
0.032910825
0.43531446
0.44438802
0.033322944
0.019460974
0.0079415949
0.0013667996
0.0013841519
0.0080401256
0.019711901
0.033772775
0.45522841
0.46913639
0.034396135
0.020056751
0.008180041
0.0014091806
0.0014469408
0.0084020558
0.020712172
0.035573642
0.48847163
0.51674321
0.037864799
0.022106566
0.008922078
0.0014898968
0.001516901
0.0094013354
0.023179403
0.039847542
0.53819026
0.55551752
0.039311325
0.023150767
0.0094508646
0.0015144399
1.3057353
2.2731293
1.6525557
0.59450911
0.037314621
0.022377195
0.0092068557
0.0015038627
0.0015215554
0.0096529448
0.024019243
0.04168683
0.56123703
0.0016612959
0.011409354
0.028982977
0.051360912
0.42729918
0.37120516
0.04853041
0.02738575
0.010787177
0.0015997403
0.0016106702
0.010781223
0.027437598
0.048685971
0.37003227
0.4922783
0.046538255
0.026492952
0.010566899
0.0015795306
0.89254384
1.0683686
2.0853708
1.6601262
6.9598878
7.0385168
7.0132664
6.9598516
6.9139043
6.9647604
6.9714139
6.9255397
0.0011988815
0.0061147128
0.014793106
0.025343409
0.33665223
0.33866658
0.025511614
0.014894056
0.0061544448
0.0012016598
0.0012045236
0.0061951885
0.014997346
0.025683708
0.3407362
0.34286274
0.025860117
0.015103253
0.006236985
0.0012074786
0.001210531
0.0062798696
0.015211693
0.026040745
0.34505013
0.34730275
0.026226084
0.015322988
0.0063239168
0.0012136874
0.0012169553
0.0063691739
0.015437141
0.026416184
0.34962529
0.35202302
0.026611531
0.015554464
0.0064157355
0.0012203428
0.0012238575
0.0064636653
0.015675036
0.026812279
0.35450155
0.35706629
0.027018848
0.01579911
0.0065130421
0.0012275085
0.0012313056
0.006563933
0.015926818
0.0272315
0.35972364
0.36248078
0.027450625
0.016058403
0.0066164287
0.0012352595
0.0012393834
0.0066706281
0.016194098
0.027676637
0.36534554
0.36832648
0.027909957
0.016334138
0.0067266219
0.0012436914
0.001248199
0.0067845064
0.016478785
0.028151087
0.37143385
0.37467924
0.028400452
0.016628288
0.0068443808
0.0012529245
0.0012578906
0.0069063646
0.016783008
0.02865875
0.37807628
0.38164081
0.028926526
0.016943217
0.0069705616
0.0012631221
0.0012686498
0.0070370911
0.017109337
0.029204618
0.38539208
0.38935277
0.029493628
0.017281624
0.0071060367
0.001274508
0.0012807388
0.007177469
0.0174605
0.029794539
0.39355158
0.3980242
0.030108044
0.017646175
0.0072514106
0.0012873933
0.0012945327
0.0073277917
0.017838881
0.030435037
0.40281676
0.40799023
0.030775927
0.018038475
0.0074064168
0.0013022351
0.0013106038
0.0074869367
0.018244647
0.031131015
0.41362754
0.41984324
0.031499537
0.018456428
0.0075688534
0.0013197848
0.0013300324
0.0076517218
0.018672948
0.031880716
0.42680175
0.4347384
0.032274925
0.018894518
0.0077356615
0.0013417939
0.0013556792
0.0078238076
0.01912614
0.032688538
0.44397203
0.45505097
0.033155399
0.019387494
0.0079255362
0.0013729567
0.0013981721
0.0080723003
0.019768191
0.033835381
0.46936086
0.48877558
0.035086557
0.020467595
0.0082883796
0.0014344046
0.0014715648
0.0088628276
0.02186889
0.037427054
0.51625161
0.53832171
0.038367029
0.022498734
0.0091234348
0.0014915884
0.0015179598
0.0096182417
0.023953393
0.041576148
0.55760026
0.037808433
0.022631189
0.0093881968
0.0015207241
0.001495634
0.008909632
0.02133726
0.035446112
0.60965931
0.52785541
0.040411017
0.023401128
0.0094732203
0.0015430099
0.0015669262
0.010409067
0.026145852
0.046261272
0.48576647
0.56703238
0.039250414
0.02282195
0.0093222741
0.001492432
0.0015179524
0.0096177807
0.023952491
0.041574893
0.55771747
0.53839115
0.038366602
0.022498009
0.0091230269
0.0014916047
0.0014715739
0.0088622278
0.021867626
0.037425469
0.51628921
0.48879503
0.035083869
0.020465972
0.0082877361
0.0014344034
0.0013981561
0.008071313
0.019765899
0.033831797
0.46936424
0.4550446
0.03315165
0.019385121
0.0079245425
0.0013729357
0.0013556562
0.0078228398
0.019123809
0.032684816
0.44395681
0.43471552
0.032271052
0.018892095
0.0077346477
0.0013417668
0.0013300001
0.0076506697
0.018670426
0.031876685
0.42677284
0.4198101
0.031495433
0.018453873
0.0075677916
0.0013197489
0.0013105647
0.0074858677
0.018242072
0.031126878
0.41359209
0.40795327
0.030771813
0.018035925
0.0074053611
0.0013021933
0.0012944898
0.0073267661
0.01783639
0.030431006
0.40277926
0.39798651
0.030104118
0.017643756
0.0072504175
0.0012873504
0.0012806965
0.0071765119
0.017458157
0.029790729
0.39351437
0.38931615
0.029489895
0.017279337
0.007105104
0.0012744658
0.0012686086
0.0070361859
0.017107102
0.029200961
0.3853563
0.38160577
0.028922953
0.016941038
0.0069696781
0.0012630822
0.0012578517
0.0069054974
0.016780867
0.028655254
0.37804189
0.37464505
0.028396944
0.016626146
0.0068435133
0.0012528866
0.0012481611
0.0067836391
0.01647664
0.028147579
0.37139967
0.36829192
0.027906472
0.016332
0.0067257604
0.001243654
0.0012393464
0.0066697632
0.016191955
0.027673142
0.36531037
0.36244482
0.027447078
0.016056241
0.0066155609
0.0012352221
0.0012312674
0.0065630469
0.015924606
0.027227867
0.35968669
0.35702797
0.027015166
0.015796861
0.0065121381
0.0012274687
0.001223817
0.0064627575
0.015672764
0.026808554
0.35446186
0.3519816
0.02660775
0.015552156
0.0064148123
0.0012203012
0.0012169128
0.0063682399
0.015434789
0.026412314
0.34958176
0.34725724
0.026222118
0.01532058
0.0063229581
0.001213643
0.0012104843
0.0062788988
0.015209239
0.026036678
0.34500287
0.34281413
0.025855958
0.015100746
0.0062359981
0.00120743
0.0012044721
0.0061941804
0.014994774
0.025679408
0.34068631
0.33861625
0.025507159
0.014891404
0.0061534126
0.0012016051
0.0011988219
0.0061136156
0.014790252
0.025338549
0.33659963
0.33463699
0.025174096
0.014691646
0.0060748531
0.0011961157
0.33713944
0.025867375
0.015071629
0.0062137746
0.0012080585
0.0012108748
0.0062540529
0.015173958
0.026038226
0.3391555
0.34122665
0.026213418
0.015278951
0.0062954226
0.0012137785
0.001216774
0.0063378327
0.015386366
0.026392638
0.34335447
0.34554299
0.02657643
0.015496553
0.0063813678
0.0012198685
0.0012230673
0.0064260517
0.015609435
0.026764709
0.34779612
0.35011815
0.026958005
0.015725339
0.0064719662
0.0012263781
0.0012298078
0.0065191627
0.015844272
0.027156358
0.35251386
0.35498849
0.027360185
0.015966502
0.0065677123
0.0012333644
0.0012370577
0.0066176793
0.016092131
0.027569707
0.35754744
0.36019665
0.027785393
0.016221445
0.006669167
0.0012408977
0.0012448952
0.0067222343
0.016354582
0.028007511
0.36294353
0.36579517
0.028236473
0.016491783
0.0067769729
0.001249064
0.0012534178
0.0068334806
0.016633306
0.028472761
0.36876002
0.37184728
0.028716734
0.016779342
0.0068918276
0.0012579715
0.0012627457
0.0069521096
0.016930175
0.028968918
0.37506765
0.37843301
0.029229787
0.017086042
0.0070144141
0.0012677607
0.0012730425
0.0070788088
0.017247251
0.02950002
0.38195767
0.385659
0.029780094
0.017414015
0.0071453706
0.0012786215
0.0012845341
0.0072141437
0.017586682
0.030070818
0.3895583
0.39368143
0.030372776
0.017765449
0.0072851659
0.0012908258
0.0012975494
0.007358407
0.017950624
0.030686931
0.39806153
0.4027425
0.031013789
0.018142217
0.0074337579
0.0013047742
0.0013125898
0.0075110601
0.018340396
0.031354316
0.40778321
0.41326459
0.031708882
0.018544887
0.0075900127
0.0013211095
0.0013304825
0.0076701942
0.018755159
0.032077478
0.41929782
0.42604124
0.03245899
0.018970055
0.0077510129
0.0013409455
0.0013528815
0.0078320237
0.019189324
0.032852969
0.43372734
0.44267834
0.033260818
0.019414792
0.0079134103
0.0013667851
0.0013842135
0.0080046584
0.019657168
0.033704903
0.45343985
0.46748038
0.034346871
0.020006346
0.008138032
0.0014095266
0.0014462176
0.0083111044
0.02064325
0.035536595
0.48664526
0.51540468
0.03797838
0.022067028
0.0089082986
0.0014874132
0.0015064414
0.0089754494
0.021983433
0.0372521
0.53642008
0.55420442
0.041353671
0.02423522
0.0098213294
0.0015513759
0.0015459437
0.010380081
0.025893953
0.044817669
0.55339043
0.59231418
0.037270826
0.022397931
0.0092376823
0.0015034056
0.0015070182
0.0095112183
0.023595141
0.040859675
0.56305752
0.55958719
0.039855411
0.023114013
0.009346227
0.0014970938
0.0014660052
0.0087431136
0.02108525
0.034872942
0.59118545
0.55511391
0.039307447
0.023149204
0.0094490175
0.0015144482
0.0015362171
0.0096867789
0.023845345
0.040634682
0.55615573
0.59417523
0.037307746
0.022372505
0.0092028343
0.0015039548
0.0015214974
0.0096473562
0.024010175
0.041673449
0.56106672
0.54036126
0.037719881
0.022156174
0.008991627
0.0014874083
0.0014680281
0.0088015834
0.021732639
0.037234792
0.51816984
0.49057566
0.035096164
0.020459219
0.0082792094
0.0014332448
0.0013975123
0.0080647816
0.019761311
0.033842363
0.4704412
0.45577821
0.033159109
0.019383191
0.0079212868
0.0013726353
0.0013555438
0.0078219715
0.019124707
0.032692296
0.44451366
0.4351668
0.032279274
0.018894962
0.0077352318
0.0013417529
0.0013300498
0.0076521566
0.018674788
0.031885994
0.42715974
0.42015291
0.031505579
0.018459214
0.007569805
0.0013198419
0.0013106841
0.0074881397
0.01824789
0.031137344
0.4138991
0.40822816
0.030782098
0.018041802
0.0074076888
0.0013023255
0.0012946237
0.0073290175
0.017842049
0.03044076
0.40302439
0.39820413
0.03011317
0.017649059
0.0072525334
0.0012874799
0.001280818
0.0071784553
0.017463028
0.029798991
0.39370671
0.38948549
0.029497361
0.017283758
0.0071068702
0.0012745775
0.00126871
0.007037775
0.017111084
0.029207668
0.38550502
0.38173627
0.028928955
0.016944609
0.0069711049
0.0012631736
0.0012579335
0.006906772
0.016784064
0.028660618
0.3781562
0.37474547
0.028401778
0.016629036
0.0068446695
0.0012529595
0.0012482268
0.0067846762
0.016479235
0.02815191
0.37148791
0.36836944
0.027910342
0.016334321
0.0067266843
0.0012437126
0.0012393985
0.0066705936
0.016194034
0.027676601
0.36537858
0.36250491
0.027450177
0.016058101
0.0066163011
0.0012352687
0.0012313089
0.0065637087
0.015926273
0.027230652
0.35973956
0.35707473
0.0270177
0.01579838
0.0065127432
0.0012275067
0.0012238509
0.0064633027
0.01567414
0.026810847
0.3545031
0.35201823
0.026609817
0.015553405
0.0064153112
0.0012203314
0.001216939
0.0063686806
0.015435907
0.026414173
0.34961443
0.34728649
0.026223791
0.015321589
0.0063233581
0.001213666
0.0012105046
0.0062792587
0.015210148
0.026038189
0.34502943
0.34283835
0.025857317
0.015101564
0.0062363219
0.0012074476
0.001204487
0.0061944732
0.014995515
0.025680636
0.34070886