/*--------------------------------*- C++ -*----------------------------------*\
  =========                 |
  \\      /  F ield         | OpenFOAM: The Open Source CFD Toolbox
   \\    /   O peration     | Website:  https://openfoam.org
    \\  /    A nd           | Version:  7
     \\/     M anipulation  |
\*---------------------------------------------------------------------------*/
FoamFile
{
    version     2.0;
    format      ascii;
    class       volScalarField;
    location    "400";
    object      p;
}
// * * * * * * * * * * * * * * * * * * * * * * * * * * * * * * * * * * * * * //

dimensions      [1 -1 -2 0 0 0 0];

internalField   nonuniform List<scalar> 
24789
(
101301.3
101301.32
101301.33
101301.34
101301.11
101299.95
101300.16
101300.15
101300.14
101300.12
101298.87
101298.89
101298.9
101298.91
101298.71
101297.39
101297.58
101297.57
101297.56
101297.53
101296.09
101296.11
101296.12
101296.13
101295.96
101294.41
101294.57
101294.55
101294.54
101294.52
101292.81
101292.83
101292.85
101292.86
101292.73
101290.89
101291
101290.98
101290.96
101290.94
101288.9
101288.93
101288.95
101288.97
101288.88
101286.67
101286.73
101286.7
101286.68
101286.65
101284.17
101284.2
101284.23
101284.26
101284.23
101281.53
101281.52
101281.49
101281.46
101281.42
101278.37
101278.41
101278.44
101278.48
101278.53
101275.19
101275.08
101275.04
101275
101274.96
101271.14
101271.19
101271.23
101271.28
101271.45
101267.24
101267
101266.95
101266.9
101266.85
101262
101262.05
101262.11
101262.17
101262.49
101257.1
101256.69
101256.61
101256.55
101256.49
101250.21
101250.28
101250.36
101250.45
101250.96
101243.92
101243.29
101243.18
101243.09
101243.01
101234.68
101234.77
101234.88
101235.02
101235.79
101226.35
101225.4
101225.24
101225.11
101225
101213.66
101213.79
101213.95
101214.15
101215.3
101202.26
101200.87
101200.63
101200.43
101200.27
101184.25
101184.44
101184.69
101185
101186.67
101167.87
101165.85
101165.47
101165.15
101164.91
101141.95
101142.25
101142.66
101143.14
101145.51
101117.5
101115.05
101114.44
101113.91
101113.52
101074.36
101074.85
101075.54
101076.28
101078.38
101037.03
101033.79
101032.73
101031.78
101031.22
101012.96
101013.6
101015.18
101017.18
101025.02
100920
100914.06
100912.24
100911.49
100910.38
100312.49
100335.74
100351.84
100370.87
100545.77
100862.16
100810.06
100799.94
100790.35
100776.62
100955.87
100970.09
100976.06
100983.64
101013.44
101177.77
101135.82
101126
101115.73
101098.73
101463.63
101490.66
101512.55
101531.28
101538.96
101117.58
100925.58
100904.66
100888.3
100861.26
101004.58
101009.9
101010.31
101010.52
101022.61
100781.44
100557.62
100530.25
100504.09
100469.97
100487.44
100495.87
100499.79
100507.71
100609.51
100926.45
100919.46
100918.27
100917.63
100917.17
101011.64
101012.38
101013.74
101015.42
101023.03
101036.78
101034.78
101033.89
101033.1
101032.57
101075.51
101075.92
101076.5
101077.15
101078.75
101118.35
101116.04
101115.51
101115.06
101114.74
101143.07
101143.31
101143.65
101144.07
101146.44
101168.57
101166.47
101166.14
101165.88
101165.69
101184.78
101184.94
101185.15
101185.41
101187.2
101202.65
101201.16
101200.95
101200.78
101200.65
101213.95
101214.06
101214.2
101214.37
101215.6
101226.59
101225.59
101225.44
101225.33
101225.24
101234.87
101234.95
101235.04
101235.16
101235.98
101244.07
101243.41
101243.31
101243.23
101243.16
101250.35
101250.41
101250.48
101250.56
101251.08
101257.21
101256.81
101256.73
101256.68
101256.62
101262.13
101262.17
101262.22
101262.28
101262.58
101267.32
101267.11
101267.06
101267.01
101266.97
101271.26
101271.3
101271.34
101271.38
101271.52
101275.25
101275.18
101275.14
101275.11
101275.07
101278.48
101278.51
101278.54
101278.57
101278.59
101281.59
101281.61
101281.59
101281.56
101281.53
101284.27
101284.3
101284.33
101284.35
101284.28
101286.72
101286.82
101286.8
101286.78
101286.75
101288.99
101289.02
101289.04
101289.06
101288.92
101290.93
101291.09
101291.08
101291.06
101291.04
101292.9
101292.92
101292.94
101292.95
101292.77
101294.45
101294.66
101294.65
101294.63
101294.61
101296.18
101296.2
101296.21
101296.22
101296
101297.42
101297.67
101297.66
101297.65
101297.63
101298.96
101298.98
101298.99
101299
101298.75
101299.98
101300.25
101300.24
101300.24
101300.22
101301.45
101301.47
101301.47
101301.47
101301.16
101300.05
101300.32
101300.32
101300.31
101300.29
101299.03
101299.05
101299.06
101299.07
101298.8
101297.48
101297.73
101297.72
101297.71
101297.69
101296.24
101296.26
101296.27
101296.28
101296.05
101294.49
101294.71
101294.7
101294.69
101294.66
101292.95
101292.97
101292.99
101293
101292.81
101290.97
101291.13
101291.12
101291.1
101291.08
101289.03
101289.06
101289.08
101289.09
101288.95
101286.74
101286.85
101286.83
101286.81
101286.79
101284.31
101284.34
101284.36
101284.38
101284.3
101281.6
101281.64
101281.61
101281.59
101281.56
101278.51
101278.54
101278.57
101278.6
101278.61
101275.26
101275.2
101275.17
101275.14
101275.1
101271.29
101271.33
101271.36
101271.4
101271.52
101267.32
101267.13
101267.08
101267.04
101267
101262.15
101262.2
101262.24
101262.3
101262.57
101257.19
101256.82
101256.75
101256.7
101256.65
101250.38
101250.44
101250.5
101250.58
101251.06
101244.04
101243.42
101243.33
101243.26
101243.19
101234.9
101234.98
101235.06
101235.17
101235.94
101226.55
101225.6
101225.47
101225.36
101225.28
101214.01
101214.11
101214.23
101214.4
101215.57
101202.62
101201.19
101200.99
101200.84
101200.72
101184.86
101185.01
101185.2
101185.44
101187.16
101168.54
101166.51
101166.2
101165.96
101165.78
101143.11
101143.33
101143.65
101144.04
101146.34
101118.55
101116.23
101115.74
101115.32
101115.03
101076.46
101076.83
101077.37
101077.98
101079.57
101034.34
101033.09
101032.31
101031.59
101031.13
101005.97
101006.59
101007.88
101009.46
101016.79
100949.09
100942.99
100941.46
100940.51
100939.87
100559.25
100565.84
100567.08
100571.67
100629.05
100594.74
100189.34
100145.72
100106.2
100055.96
101656.64
101639.14
101623.32
101602.91
101377.73
101070.14
100927.63
100909.75
100897.23
100872.31
101414.86
101447
101470.04
101490.37
101487.16
101203.77
101251.83
101256.36
101260.28
101257.53
101532.29
101520.28
101507.72
101490.85
101341.47
100582.2
100248.66
100204.71
100162.45
100111.52
100495.25
100505.18
100508.22
100514.83
100590.36
100931.31
100924.78
100923.18
100922.52
100921.53
101000.19
101000.76
101001.98
101003.54
101009.81
101030.85
101029.08
101028.26
101027.49
101026.98
101073.85
101074.3
101074.89
101075.54
101077.31
101116.62
101114.51
101113.97
101113.52
101113.16
101141.7
101141.97
101142.32
101142.74
101144.75
101167.4
101165.71
101165.37
101165.1
101164.88
101184.22
101184.4
101184.62
101184.88
101186.3
101201.93
101200.76
101200.54
101200.37
101200.22
101213.6
101213.72
101213.87
101214.05
101215.01
101226.11
101225.33
101225.18
101225.06
101224.96
101234.64
101234.73
101234.83
101234.96
101235.59
101243.75
101243.24
101243.13
101243.05
101242.97
101250.19
101250.26
101250.33
101250.42
101250.82
101256.99
101256.68
101256.6
101256.54
101256.47
101262
101262.05
101262.1
101262.17
101262.41
101267.18
101267.01
101266.95
101266.9
101266.85
101271.15
101271.19
101271.23
101271.28
101271.4
101275.16
101275.09
101275.05
101275.01
101274.97
101278.38
101278.42
101278.45
101278.49
101278.51
101281.52
101281.54
101281.5
101281.47
101281.44
101284.19
101284.22
101284.25
101284.27
101284.23
101286.68
101286.75
101286.73
101286.71
101286.68
101288.92
101288.95
101288.98
101289
101288.9
101290.92
101291.04
101291.02
101291
101290.97
101292.85
101292.87
101292.89
101292.9
101292.76
101294.45
101294.61
101294.6
101294.58
101294.56
101296.14
101296.16
101296.17
101296.19
101296.01
101297.44
101297.63
101297.62
101297.61
101297.58
101298.93
101298.95
101298.96
101298.97
101298.77
101300.02
101300.24
101300.23
101300.22
101300.2
101300.2
101300.22
101300.23
101300.23
101300.01
101298.77
101298.98
101298.97
101298.96
101298.94
101297.6
101297.62
101297.63
101297.64
101297.44
101296.01
101296.2
101296.19
101296.18
101296.15
101294.58
101294.6
101294.62
101294.63
101294.46
101292.78
101292.92
101292.91
101292.89
101292.87
101291
101291.03
101291.04
101291.06
101290.94
101288.92
101289.02
101289
101288.98
101288.95
101286.71
101286.74
101286.76
101286.78
101286.71
101284.27
101284.31
101284.28
101284.26
101284.23
101281.47
101281.51
101281.53
101281.56
101281.56
101278.56
101278.52
101278.49
101278.46
101278.42
101275.01
101275.05
101275.09
101275.13
101275.21
101271.47
101271.32
101271.27
101271.23
101271.19
101266.9
101266.95
101266.99
101267.05
101267.26
101262.5
101262.21
101262.15
101262.09
101262.04
101256.55
101256.6
101256.66
101256.74
101257.11
101250.97
101250.49
101250.4
101250.33
101250.27
101243.07
101243.14
101243.23
101243.33
101243.93
101235.81
101235.06
101234.94
101234.84
101234.75
101225.07
101225.18
101225.3
101225.45
101226.37
101215.32
101214.18
101214
101213.85
101213.73
101200.33
101200.47
101200.66
101200.88
101202.28
101186.68
101184.96
101184.67
101184.45
101184.27
101164.88
101165.09
101165.38
101165.73
101167.85
101145.41
101142.87
101142.43
101142.07
101141.8
101113.34
101113.69
101114.15
101114.7
101117.37
101078.35
101075.95
101075.28
101074.68
101074.23
101029.57
101030.05
101030.88
101031.83
101035.57
101020.44
101011.15
101009.41
101008.11
101007.74
100923.64
100923.75
100923.11
100923.37
100922.46
100555.42
100410.04
100394.45
100382.72
100364.45
100516.62
100545.54
100566.84
100590
100771.33
101209.8
101313.24
101318.36
101321.24
101319.58
100956.69
100975.76
100984.76
100995.24
101083.41
101565.17
101553.18
101533.17
101509.88
101480.38
101840.85
101987.84
102008.18
102022.59
102026.51
102116.51
102109.65
102102.19
102082.9
101789.16
101623.79
101655.22
101647.6
101638.9
101616.79
101506.88
101515.05
101518.43
101519.25
101458.94
101287.32
101368.35
101376.67
101382.06
101387.34
101163.83
101174.45
101183.5
101188.65
101190.28
100634.74
100419.84
100391.58
100366.51
100328.44
100496.95
100506.61
100511.09
100519.6
100603.52
100931.17
100926.84
100925.26
100924.17
100923
101004.49
101005.28
101006.64
101008.28
101012.9
101032.59
101031.58
101030.66
101029.8
101029.22
101074.76
101075.25
101075.89
101076.58
101077.86
101116.95
101115.11
101114.55
101114.05
101113.67
101142.01
101142.3
101142.69
101143.13
101144.98
101167.51
101165.88
101165.52
101165.22
101164.99
101184.25
101184.43
101184.67
101184.95
101186.34
101201.95
101200.79
101200.56
101200.37
101200.22
101213.6
101213.73
101213.88
101214.07
101215.03
101226.11
101225.32
101225.16
101225.04
101224.93
101234.61
101234.7
101234.8
101234.93
101235.59
101243.74
101243.22
101243.11
101243.02
101242.94
101250.16
101250.23
101250.31
101250.4
101250.81
101256.98
101256.66
101256.58
101256.52
101256.46
101261.97
101262.02
101262.08
101262.15
101262.39
101267.16
101266.98
101266.92
101266.87
101266.82
101271.13
101271.18
101271.22
101271.27
101271.39
101275.15
101275.07
101275.03
101274.99
101274.95
101278.36
101278.4
101278.44
101278.47
101278.5
101281.51
101281.52
101281.49
101281.46
101281.42
101284.18
101284.21
101284.24
101284.27
101284.22
101286.67
101286.74
101286.71
101286.69
101286.65
101288.91
101288.94
101288.96
101288.98
101288.89
101290.91
101291.03
101291.01
101290.99
101290.96
101292.83
101292.86
101292.88
101292.89
101292.75
101294.44
101294.6
101294.59
101294.58
101294.55
101296.13
101296.16
101296.17
101296.18
101296
101297.44
101297.63
101297.62
101297.61
101297.59
101298.94
101298.96
101298.97
101298.98
101298.77
101300.03
101300.25
101300.24
101300.23
101300.21
101300.25
101300.27
101300.28
101300.28
101300.02
101298.77
101299.02
101299.02
101299.01
101298.99
101297.65
101297.67
101297.68
101297.69
101297.45
101296.02
101296.24
101296.23
101296.22
101296.2
101294.63
101294.65
101294.66
101294.67
101294.47
101292.78
101292.96
101292.95
101292.94
101292.91
101291.04
101291.07
101291.08
101291.1
101290.94
101288.93
101289.06
101289.04
101289.03
101289
101286.75
101286.78
101286.8
101286.82
101286.72
101284.29
101284.35
101284.33
101284.3
101284.27
101281.53
101281.56
101281.58
101281.61
101281.59
101278.6
101278.57
101278.54
101278.51
101278.47
101275.07
101275.1
101275.14
101275.17
101275.26
101271.52
101271.37
101271.33
101271.29
101271.25
101266.96
101267
101267.05
101267.1
101267.32
101262.58
101262.27
101262.21
101262.16
101262.11
101256.61
101256.67
101256.72
101256.79
101257.2
101251.08
101250.55
101250.47
101250.4
101250.34
101243.16
101243.23
101243.3
101243.4
101244.06
101235.98
101235.16
101235.04
101234.95
101234.87
101225.24
101225.34
101225.45
101225.59
101226.6
101215.62
101214.39
101214.21
101214.08
101213.97
101200.68
101200.81
101200.98
101201.2
101202.68
101187.23
101185.47
101185.2
101184.99
101184.83
101165.76
101165.97
101166.24
101166.58
101168.63
101146.5
101144.23
101143.8
101143.44
101143.19
101115.06
101115.4
101115.88
101116.43
101118.54
101079.3
101078.23
101077.55
101076.92
101076.48
101032.68
101033.22
101034.08
101035.01
101035.81
101019.56
101013.55
101011.73
101010.26
101009.5
100930.64
100931.19
100931.54
100933.11
100935.55
100625.63
100529.36
100521.33
100515.97
100506.23
100407.2
100439.54
100462.94
100489.93
100731.51
101080.88
101103.48
101102.08
101100.8
101091.68
100839.8
100870.77
100898.89
100926.3
101149.84
101590.75
101946.84
101987.77
102023.26
102058.31
101052.21
101075
101092.5
101107.32
101191.54
100952.36
100878.12
100865.5
100856.09
100832.74
100897.61
100900.7
100901.34
100901.99
100896.29
100549.73
100338.83
100313.7
100291.98
100264.07
100915.11
100915.72
100915.52
100916.22
100916.62
101022.2
101014.64
101012.71
101011.18
101010.6
101029.98
101030.55
101031.53
101032.61
101036.07
101078.25
101076.16
101075.41
101074.73
101074.23
101113.36
101113.75
101114.28
101114.89
101117.38
101145.41
101142.99
101142.5
101142.09
101141.79
101164.82
101165.06
101165.38
101165.76
101167.82
101186.64
101184.94
101184.64
101184.38
101184.19
101200.23
101200.39
101200.59
101200.84
101202.24
101215.28
101214.12
101213.92
101213.76
101213.63
101224.98
101225.09
101225.22
101225.38
101226.34
101235.78
101235
101234.86
101234.75
101234.66
101242.99
101243.07
101243.16
101243.27
101243.91
101250.95
101250.44
101250.35
101250.27
101250.2
101256.49
101256.55
101256.61
101256.69
101257.09
101262.48
101262.16
101262.09
101262.04
101261.98
101266.84
101266.89
101266.93
101266.99
101267.23
101271.44
101271.27
101271.22
101271.18
101271.13
101274.95
101274.99
101275.03
101275.07
101275.19
101278.53
101278.47
101278.43
101278.4
101278.36
101281.42
101281.45
101281.48
101281.51
101281.53
101284.23
101284.25
101284.23
101284.2
101284.17
101286.65
101286.68
101286.7
101286.72
101286.67
101288.88
101288.96
101288.94
101288.92
101288.89
101290.94
101290.97
101290.99
101291
101290.89
101292.73
101292.87
101292.85
101292.84
101292.81
101294.52
101294.55
101294.56
101294.57
101294.42
101295.97
101296.14
101296.13
101296.12
101296.1
101297.54
101297.57
101297.58
101297.59
101297.4
101298.72
101298.93
101298.92
101298.91
101298.89
101300.14
101300.16
101300.17
101300.18
101299.97
101300
101300.22
101300.21
101300.2
101300.18
101298.93
101298.96
101298.97
101298.97
101298.76
101297.43
101297.63
101297.63
101297.61
101297.59
101296.15
101296.17
101296.18
101296.19
101296.01
101294.46
101294.62
101294.61
101294.6
101294.57
101292.86
101292.89
101292.9
101292.92
101292.77
101290.93
101291.05
101291.03
101291.02
101290.99
101288.95
101288.98
101289
101289.02
101288.92
101286.7
101286.77
101286.75
101286.72
101286.69
101284.21
101284.25
101284.27
101284.3
101284.26
101281.56
101281.56
101281.53
101281.51
101281.47
101278.42
101278.45
101278.48
101278.52
101278.56
101275.21
101275.12
101275.08
101275.05
101275.01
101271.19
101271.23
101271.27
101271.32
101271.46
101267.25
101267.04
101266.98
101266.94
101266.89
101262.05
101262.1
101262.16
101262.22
101262.5
101257.11
101256.74
101256.66
101256.6
101256.54
101250.28
101250.34
101250.41
101250.5
101250.97
101243.93
101243.35
101243.24
101243.16
101243.08
101234.77
101234.86
101234.96
101235.08
101235.81
101226.37
101225.48
101225.33
101225.2
101225.1
101213.78
101213.9
101214.05
101214.23
101215.33
101202.29
101200.95
101200.73
101200.54
101200.39
101184.37
101184.55
101184.78
101185.07
101186.71
101167.9
101165.88
101165.53
101165.23
101165.01
101141.9
101142.18
101142.56
101143.01
101145.47
101117.5
101114.78
101114.2
101113.71
101113.34
101074.35
101074.81
101075.44
101076.15
101078.65
101034.51
101031.02
101030.05
101029.19
101028.67
101004.93
101005.43
101006.83
101008.68
101017.98
100933.21
100934.97
100934.73
100935.46
100935.46
100425.33
100439.6
100447.38
100458.41
100569.4
100656.12
100389.51
100354.99
100324.89
100284.97
101581.4
101569.48
101556.83
101539.84
101358.16
101005.56
100883.99
100870.47
100861.96
100841.92
101219.45
101135.36
101205.62
101124.27
100945.74
100924.25
100904.7
100876.98
101379.46
101376.19
101372.65
101366.83
101311.79
101714.1
101723.74
101728.68
101726.6
101706.19
101453.96
101521.64
101518.26
101512.19
101490.24
101070.44
101104.34
101120.54
101139.04
101230.2
101456.58
101499.84
101503.08
101502.29
101499.83
101481.02
101768.4
101439.1
101515.1
101310.25
101312.57
101306.3
101310.22
101307.18
101305.84
101306.99
101307.06
101300.16
101300.19
101300.2
101300.21
101300
101298.77
101298.97
101298.96
101298.95
101298.92
101297.59
101297.62
101297.63
101297.64
101297.45
101296.03
101296.21
101296.2
101296.18
101296.16
101294.59
101294.61
101294.63
101294.64
101294.48
101292.8
101292.94
101292.92
101292.91
101292.88
101291.01
101291.04
101291.06
101291.08
101290.95
101288.93
101289.03
101289.01
101288.98
101288.95
101286.7
101286.74
101286.76
101286.78
101286.71
101284.27
101284.31
101284.28
101284.26
101284.22
101281.47
101281.5
101281.53
101281.57
101281.55
101278.54
101278.51
101278.47
101278.44
101278.4
101274.99
101275.03
101275.07
101275.11
101275.18
101271.42
101271.31
101271.26
101271.21
101271.17
101266.86
101266.91
101266.96
101267.02
101267.19
101262.42
101262.18
101262.11
101262.06
101262
101256.49
101256.55
101256.61
101256.69
101257.01
101250.83
101250.43
101250.33
101250.26
101250.19
101242.97
101243.05
101243.14
101243.25
101243.76
101235.6
101234.97
101234.84
101234.73
101234.64
101224.95
101225.06
101225.19
101225.34
101226.13
101215.04
101214.09
101213.9
101213.75
101213.62
101200.24
101200.39
101200.58
101200.81
101201.97
101186.36
101184.97
101184.68
101184.45
101184.26
101164.97
101165.2
101165.5
101165.86
101167.53
101145.04
101143.11
101142.65
101142.26
101141.97
101113.41
101113.79
101114.29
101114.87
101116.79
101076.92
101075.53
101074.85
101074.21
101073.73
101030.9
101031.45
101032.33
101033.28
101034.81
101021.21
101017.42
101015.69
101014.24
101013.54
100898.7
100899.87
100900.9
100902.46
100904.2
100556.39
100381.06
100362.34
100347.39
100326.9
100884.31
100892.58
100893.55
100895.89
100900.07
100872.91
100719.31
100699.25
100682.07
100649.68
101260.44
101267.42
101278.69
101285.63
101318.75
101551.29
101554.11
101558.93
101547.18
101377.2
101399.55
101398.71
101404.05
101354.37
101371.95
101417.87
101406.42
101398.67
101372
102341.49
102299.14
102262.69
102216.09
101855.08
101765.1
102013.59
102034.92
102050.51
102066.57
101259.96
101266.96
101278.26
101285.22
101318.58
100872.78
100719.09
100699.04
100681.86
100649.48
100884.23
100892.5
100893.47
100895.81
100900.02
100556.4
100380.99
100362.27
100347.3
100326.82
100898.82
100899.98
100901
100902.56
100904.3
101021.26
101017.44
101015.71
101014.26
101013.55
101030.95
101031.5
101032.38
101033.33
101034.86
101076.95
101075.56
101074.88
101074.24
101073.77
101113.44
101113.82
101114.32
101114.9
101116.82
101145.07
101143.14
101142.69
101142.3
101142
101164.99
101165.23
101165.53
101165.89
101167.55
101186.38
101184.99
101184.7
101184.47
101184.28
101200.27
101200.42
101200.61
101200.84
101201.99
101215.06
101214.11
101213.92
101213.77
101213.64
101224.98
101225.08
101225.21
101225.37
101226.15
101235.61
101234.98
101234.85
101234.75
101234.66
101242.98
101243.06
101243.15
101243.26
101243.77
101250.84
101250.43
101250.34
101250.27
101250.2
101256.49
101256.55
101256.61
101256.69
101257
101262.41
101262.17
101262.1
101262.04
101261.99
101266.85
101266.9
101266.95
101267.01
101267.18
101271.4
101271.28
101271.23
101271.19
101271.14
101274.96
101275.01
101275.04
101275.09
101275.15
101278.5
101278.48
101278.44
101278.41
101278.37
101281.43
101281.47
101281.5
101281.53
101281.51
101284.22
101284.26
101284.23
101284.21
101284.17
101286.65
101286.68
101286.71
101286.73
101286.66
101288.87
101288.97
101288.95
101288.93
101288.9
101290.95
101290.97
101290.99
101291.01
101290.89
101292.73
101292.87
101292.86
101292.84
101292.81
101294.52
101294.55
101294.56
101294.58
101294.42
101295.97
101296.14
101296.13
101296.11
101296.09
101297.53
101297.56
101297.57
101297.58
101297.39
101298.72
101298.91
101298.9
101298.89
101298.87
101300.13
101300.15
101300.16
101300.17
101299.96
101301.13
101301.38
101301.38
101301.37
101301.36
101299.97
101300.19
101300.19
101300.18
101300.16
101298.92
101298.94
101298.95
101298.96
101298.75
101297.43
101297.63
101297.62
101297.61
101297.58
101296.14
101296.17
101296.18
101296.19
101296.01
101294.47
101294.63
101294.61
101294.6
101294.58
101292.87
101292.89
101292.91
101292.92
101292.78
101290.94
101291.06
101291.04
101291.02
101291
101288.95
101288.98
101289
101289.02
101288.93
101286.72
101286.78
101286.75
101286.73
101286.7
101284.21
101284.25
101284.27
101284.3
101284.28
101281.57
101281.56
101281.53
101281.5
101281.46
101278.4
101278.44
101278.47
101278.51
101278.57
101275.22
101275.11
101275.07
101275.03
101274.99
101271.16
101271.21
101271.25
101271.3
101271.47
101267.26
101267.02
101266.96
101266.91
101266.86
101262.01
101262.06
101262.12
101262.18
101262.5
101257.11
101256.7
101256.62
101256.56
101256.5
101250.21
101250.28
101250.36
101250.45
101250.97
101243.92
101243.29
101243.18
101243.09
101243.01
101234.67
101234.77
101234.87
101235.01
101235.79
101226.35
101225.41
101225.24
101225.11
101225
101213.66
101213.79
101213.95
101214.15
101215.3
101202.27
101200.88
101200.64
101200.43
101200.27
101184.25
101184.44
101184.7
101185
101186.68
101167.88
101165.84
101165.45
101165.13
101164.89
101141.88
101142.18
101142.59
101143.07
101145.48
101117.47
101114.99
101114.38
101113.85
101113.46
101074.37
101074.86
101075.54
101076.28
101078.35
101036.21
101032.79
101031.71
101030.74
101030.17
101010.81
101011.39
101012.91
101014.83
101022.35
100916.64
100916.42
100915.75
100916
100915.4
100264.62
100292.52
100314.26
100339.4
100550.22
100896.71
100902.45
100901.82
100901.18
100898.1
100833.46
100856.76
100866.17
100878.77
100952.82
101191.72
101108.19
101093.45
101076.02
101053.33
102058.01
102023.1
101987.68
101946.72
101590.42
101149.77
100926.93
100899.63
100871.6
100840.77
101382.98
101377.98
101372.86
101364.8
101286.3
101204.41
101251.1
101255.42
101259.08
101256.25
100873.62
100898.55
100911.1
100929.01
101071.77
101005.81
100883.83
100870.3
100861.76
100841.63
100958.03
100977.11
100986.11
100996.58
101084.59
101125
100945.88
100924.35
100904.75
100877
101380.08
101376.8
101373.26
101367.43
101312.17
100894.93
100751.29
100728.91
100706.73
100673.91
100869.91
100877.51
100879.82
100883.53
100902.2
100546.02
100367.51
100348.77
100334.03
100312.02
100902.47
100903.76
100905
100906.39
100905.24
101021.7
101018.13
101016.32
101014.79
101014.15
101030.82
101031.38
101032.3
101033.28
101034.54
101077.07
101075.98
101075.29
101074.63
101074.15
101113.91
101114.29
101114.8
101115.37
101117.04
101145.21
101143.47
101143.02
101142.63
101142.34
101165.22
101165.45
101165.75
101166.1
101167.63
101186.44
101185.15
101184.87
101184.63
101184.45
101200.39
101200.54
101200.73
101200.96
101202.04
101215.1
101214.2
101214.01
101213.86
101213.74
101225.05
101225.16
101225.28
101225.44
101226.18
101235.64
101235.04
101234.91
101234.81
101234.72
101243.03
101243.11
101243.2
101243.31
101243.79
101250.86
101250.47
101250.38
101250.31
101250.24
101256.52
101256.58
101256.64
101256.72
101257.02
101262.43
101262.21
101262.14
101262.09
101262.03
101266.87
101266.92
101266.97
101267.03
101267.19
101271.41
101271.3
101271.25
101271.21
101271.17
101274.98
101275.02
101275.06
101275.1
101275.16
101278.51
101278.5
101278.46
101278.43
101278.39
101281.44
101281.47
101281.5
101281.54
101281.52
101284.23
101284.28
101284.25
101284.22
101284.19
101286.67
101286.7
101286.72
101286.75
101286.67
101288.88
101288.99
101288.97
101288.94
101288.91
101290.95
101290.98
101291
101291.02
101290.9
101292.74
101292.88
101292.87
101292.85
101292.82
101294.53
101294.56
101294.57
101294.58
101294.42
101295.97
101296.15
101296.14
101296.13
101296.1
101297.55
101297.57
101297.58
101297.59
101297.4
101298.72
101298.92
101298.92
101298.9
101298.88
101300.13
101300.15
101300.16
101300.17
101299.95
101301.1
101301.32
101301.31
101301.3
101301.28
101300.02
101300.24
101300.23
101300.22
101300.2
101298.95
101298.97
101298.99
101298.99
101298.79
101297.46
101297.66
101297.65
101297.63
101297.61
101296.17
101296.19
101296.21
101296.22
101296.04
101294.48
101294.65
101294.64
101294.62
101294.6
101292.88
101292.91
101292.93
101292.94
101292.79
101290.95
101291.07
101291.06
101291.04
101291.01
101288.96
101288.99
101289.02
101289.04
101288.93
101286.71
101286.79
101286.77
101286.74
101286.71
101284.22
101284.26
101284.28
101284.31
101284.26
101281.55
101281.57
101281.54
101281.51
101281.47
101278.42
101278.46
101278.49
101278.53
101278.54
101275.18
101275.13
101275.08
101275.05
101275.01
101271.18
101271.22
101271.27
101271.31
101271.42
101267.2
101267.04
101266.98
101266.93
101266.88
101262.03
101262.08
101262.14
101262.2
101262.43
101257.02
101256.72
101256.64
101256.58
101256.52
101250.24
101250.3
101250.38
101250.47
101250.85
101243.78
101243.29
101243.19
101243.1
101243.02
101234.7
101234.79
101234.89
101235.02
101235.62
101226.15
101225.41
101225.26
101225.13
101225.03
101213.7
101213.83
101213.98
101214.16
101215.07
101202
101200.91
101200.69
101200.5
101200.35
101184.4
101184.58
101184.82
101185.1
101186.39
101167.58
101166.05
101165.7
101165.4
101165.17
101142.27
101142.56
101142.95
101143.39
101145.14
101116.96
101115.27
101114.7
101114.2
101113.82
101074.04
101074.52
101075.18
101075.87
101076.99
101034.41
101033.13
101032.15
101031.23
101030.67
101014.05
101014.69
101016.23
101018.04
101021.59
100904.96
100906.22
100904.84
100903.59
100902.3
100311.49
100333.48
100348.2
100366.94
100545.58
100901.98
100883.29
100879.59
100877.29
100869.69
100673.72
100706.5
100728.65
100751.01
100894.64
101017.06
100940.37
100930.77
100921.25
100904.54
100662.42
100682.39
100694.46
100709.01
100825.91
100601.59
100457.4
100444.17
100434.63
100419.93
100916.96
100917.54
100918.35
100919.81
100925.9
101023.18
101017.48
101015.87
101014.53
101013.98
101032.5
101032.96
101033.75
101034.6
101035.86
101078.46
101077.22
101076.6
101076.03
101075.63
101114.9
101115.21
101115.65
101116.16
101118.32
101146.41
101144.13
101143.73
101143.41
101143.17
101165.8
101165.98
101166.23
101166.54
101168.56
101187.19
101185.49
101185.23
101185.04
101184.89
101200.76
101200.88
101201.04
101201.24
101202.65
101215.6
101214.45
101214.28
101214.15
101214.05
101225.32
101225.41
101225.51
101225.65
101226.58
101235.97
101235.21
101235.1
101235.02
101234.94
101243.23
101243.29
101243.36
101243.46
101244.06
101251.08
101250.61
101250.53
101250.47
101250.41
101256.68
101256.73
101256.79
101256.85
101257.21
101262.59
101262.33
101262.27
101262.23
101262.18
101267.02
101267.07
101267.1
101267.15
101267.33
101271.54
101271.43
101271.39
101271.35
101271.31
101275.13
101275.16
101275.19
101275.23
101275.28
101278.62
101278.62
101278.59
101278.57
101278.53
101281.59
101281.62
101281.64
101281.67
101281.62
101284.32
101284.41
101284.38
101284.36
101284.33
101286.81
101286.84
101286.86
101286.88
101286.76
101288.97
101289.12
101289.1
101289.08
101289.06
101291.1
101291.13
101291.14
101291.16
101290.99
101292.82
101293.02
101293.01
101292.99
101292.97
101294.68
101294.7
101294.72
101294.73
101294.51
101296.06
101296.29
101296.28
101296.27
101296.25
101297.69
101297.71
101297.72
101297.73
101297.48
101298.8
101299.06
101299.05
101299.04
101299.02
101300.27
101300.29
101300.29
101300.3
101300.03
101300.02
101300.29
101300.29
101300.28
101300.26
101299.02
101299.04
101299.05
101299.05
101298.8
101297.48
101297.73
101297.72
101297.71
101297.69
101296.25
101296.27
101296.28
101296.29
101296.06
101294.51
101294.72
101294.71
101294.7
101294.68
101292.97
101292.99
101293.01
101293.02
101292.83
101290.99
101291.16
101291.14
101291.13
101291.1
101289.06
101289.08
101289.1
101289.12
101288.98
101286.77
101286.87
101286.85
101286.83
101286.81
101284.32
101284.35
101284.38
101284.4
101284.33
101281.63
101281.66
101281.63
101281.61
101281.58
101278.52
101278.55
101278.58
101278.61
101278.63
101275.29
101275.21
101275.17
101275.14
101275.11
101271.29
101271.33
101271.36
101271.41
101271.55
101267.34
101267.13
101267.08
101267.03
101266.99
101262.14
101262.19
101262.24
101262.3
101262.6
101257.22
101256.82
101256.74
101256.69
101256.63
101250.36
101250.42
101250.48
101250.57
101251.09
101244.07
101243.41
101243.31
101243.24
101243.17
101234.87
101234.95
101235.04
101235.16
101235.98
101226.59
101225.59
101225.44
101225.33
101225.24
101213.96
101214.07
101214.2
101214.38
101215.6
101202.65
101201.17
101200.95
101200.79
101200.66
101184.79
101184.95
101185.16
101185.42
101187.21
101168.58
101166.49
101166.16
101165.9
101165.7
101143.08
101143.33
101143.67
101144.08
101146.45
101118.37
101116.07
101115.54
101115.09
101114.76
101075.53
101075.95
101076.53
101077.17
101078.78
101036.79
101034.79
101033.91
101033.12
101032.58
101011.67
101012.4
101013.76
101015.44
101023.05
100926.48
100919.47
100918.28
100917.64
100917.14
100487.6
100496.02
100499.94
100507.86
100609.59
100781.61
100557.95
100530.59
100504.44
100470.32
101004.72
101010.05
101010.46
101010.68
101022.78
101117.75
100925.87
100904.95
100888.55
100861.51
101464.94
101491.86
101513.66
101532.29
101539.31
101177.97
101136.37
101126.57
101116.31
101099.33
100956.32
100970.55