/*--------------------------------*- C++ -*----------------------------------*\
  =========                 |
  \\      /  F ield         | OpenFOAM: The Open Source CFD Toolbox
   \\    /   O peration     | Website:  https://openfoam.org
    \\  /    A nd           | Version:  7
     \\/     M anipulation  |
\*---------------------------------------------------------------------------*/
FoamFile
{
    version     2.0;
    format      ascii;
    class       volScalarField;
    location    "40";
    object      omega;
}
// * * * * * * * * * * * * * * * * * * * * * * * * * * * * * * * * * * * * * //

dimensions      [0 0 -1 0 0 0 0];

internalField   nonuniform List<scalar> 
24866
(
434.20723
442.17443
443.51246
505.56775
565.84455
564.66484
560.06416
566.03453
566.72819
559.48514
562.59961
562.63782
559.58491
566.79206
565.96695
560.29263
564.13955
566.09637
564.31666
562.7401
555.39847
567.91586
581.73027
575.30956
561.73231
551.89269
563.17229
576.25425
575.04448
557.21449
565.05177
564.60971
564.60881
565.0519
557.2363
575.05181
576.31318
563.23003
551.83271
561.66322
575.29212
581.73151
567.92268
555.39973
562.80244
564.27882
566.18357
564.06177
560.34663
565.82943
566.89906
559.54705
562.60066
562.63098
559.62712
566.67696
566.10137
559.95556
564.8156
565.71434
569.42399
566.2756
569.48327
569.94377
561.60871
565.4306
572.32048
571.15239
561.83265
562.14222
562.16779
561.8795
571.17231
572.32301
565.45648
561.51733
569.49896
569.263
565.25686
567.58817
567.18249
555.71151
557.48596
563.75534
565.82119
573.04392
565.9013
558.90125
567.05244
574.02081
565.85375
559.24788
564.18107
564.5933
563.8738
562.01272
560.41778
562.89274
562.02095
563.3417
563.04234
563.45541
562.95419
563.67617
564.13957
564.14621
563.89683
564.29901
563.60858
562.73162
557.07878
568.82919
568.16972
565.10467
561.22211
563.13204
563.39948
563.73325
564.15978
564.40815
564.35684
563.99567
564.35466
563.78901
563.14696
562.74532
560.97008
561.89414
562.28839
563.1259
563.93708
564.52583
564.84599
564.68594
564.74779
564.5437
564.16197
563.9001
563.40094
563.61163
561.22545
557.08314
568.82815
568.16792
550.79381
551.1606
510.68088
503.39792
504.39014
504.39034
503.39759
496.19254
499.7558
555.6898
555.36829
501.56543
502.1845
491.07703
500.06225
499.26486
487.55283
483.11721
493.51228
501.39166
504.11799
505.58839
502.86305
498.15939
503.98405
504.41257
495.64834
496.10196
496.04852
495.52154
504.31902
504.00669
498.02867
503.25209
511.76484
512.62925
552.01911
552.37718
510.07651
495.50654
510.97814
504.26466
498.68558
562.24366
563.28356
562.24458
563.34111
562.69048
560.91055
561.87375
562.26375
563.09449
563.89344
564.46726
564.77702
564.84911
564.9179
564.75069
564.41296
564.15188
564.18634
564.30242
565.85873
562.73363
501.68242
504.26844
542.84349
555.70231
499.73173
496.19624
439.73722
441.98281
442.57121
442.57103
441.98115
439.73177
438.55192
439.85771
439.84052
435.85597
439.07139
438.71027
433.93821
430.94184
437.82425
440.91839
442.58524
443.42013
441.95837
441.45294
442.21846
442.70421
439.62928
439.60932
439.59518
439.54414
442.59923
442.17582
441.34445
392.59126
392.81292
393.31508
393.2938
392.85639
442.23651
503.35302
497.9956
504.07362
504.27833
495.68419
496.09228
496.05314
495.59528
504.41175
503.87813
498.22411
502.81131
505.65738
504.10325
501.44214
493.52535
483.13116
539.47567
560.30055
552.86154
499.29724
500.09295
491.09051
502.16398
501.52055
555.41514
544.09757
511.05708
506.2295
492.75988
508.86639
513.2467
512.41198
555.92959
574.04008
567.06414
558.89896
559.25141
565.81921
564.60041
564.14799
564.36461
564.6917
564.36269
564.53106
564.46955
564.18175
563.6763
563.07767
563.0336
563.33086
563.67827
563.8979
563.94381
563.79838
563.4673
564.00587
563.68709
563.8839
563.75792
557.49734
562.02774
562.9679
562.90915
563.05546
563.15668
563.13326
563.1015
563.08172
563.03472
563.34192
562.69755
562.27412
562.29628
562.75404
563.35565
562.03999
565.27431
560.43769
555.73041
567.22185
567.58239
550.16316
511.07322
509.15278
549.69525
506.84736
508.91712
493.12149
432.49855
440.9577
437.84048
430.95255
433.95703
487.60552
487.14666
503.39257
503.71945
544.01712
541.10883
504.89417
490.62351
508.61087
429.59186
438.72102
439.06902
435.85002
439.85383
439.86813
438.55203
389.884
391.19135
392.46035
392.60332
392.60322
392.45912
391.18796
389.88449
390.39588
390.48685
388.40939
390.18181
389.83721
387.28181
385.68438
390.06307
391.84433
392.71158
393.24273
392.71951
392.69074
392.91778
393.27324
391.79751
391.91532
391.8719
391.69737
393.17837
392.85725
352.33619
352.29922
352.28424
352.50976
352.49997
352.3161
352.3138
392.59828
441.33392
442.23463
442.62576
439.64645
439.60665
439.60775
439.60996
442.68281
442.14224
441.47889
441.93092
443.46436
442.58752
392.71745
391.87258
390.0782
385.69509
387.29806
389.84764
390.1835
388.40725
390.49335
390.39905
350.27908
350.00301
351.11502
351.88037
351.95208
351.95216
351.87946
351.11267
350.00282
350.27649
350.37486
349.19428
350.30435
350.02751
348.41652
347.44993
350.35874
351.53827
352.10635
352.46413
352.25671
352.38945
352.40206
352.64576
351.88416
351.98783
351.95591
351.80508
352.56211
318.97396
318.82914
318.89074
318.76301
318.86072
318.85702
318.78716
318.90787
318.86821
319.01336
352.6041
393.21657
391.80338
391.91516
391.88589
391.74992
393.24287
392.85841
392.69643
392.70045
393.26797
352.47756
352.11183
351.55811
350.37134
347.45937
348.42927
350.03597
350.30631
349.19344
350.37963
317.2512
317.13605
317.00114
317.90472
318.35889
318.40987
318.40992
318.35819
317.90302
317.00062
317.1339
317.24758
316.57061
317.28686
317.03978
315.94001
315.34948
317.35397
318.1613
318.57426
318.83004
318.76692
318.97066
318.89298
319.04547
318.66242
318.74486
318.71945
318.59859
290.90349
291.06905
290.98545
291.08782
290.91341
290.94531
290.94465
290.93217
291.10496
291.01859
291.10439
290.95306
318.6613
351.8853
351.98972
351.96938
351.84642
352.6124
352.35251
352.38398
352.24126
318.75376
318.83654
318.57849
318.17526
317.36414
315.35751
315.95006
317.04669
317.28886
316.57051
289.3026
289.69116
289.57297
289.53201
290.263
290.52939
290.56978
290.56976
290.52881
290.26171
289.53133
289.57115
289.68838
289.30231
289.76655
289.5396
288.75546
288.40519
289.83577
290.40463
290.72324
290.91871
290.92912
291.1568
291.04416
291.12992
290.95559
291.02699
291.00645
267.72632
267.63667
267.69139
267.64873
267.76157
267.58087
267.57858
267.57937
267.59573
267.77755
267.6767
267.72239
267.67639
267.74449
291.02865
318.74709
318.73123
318.63133
319.01434
318.85199
318.96004
291.1445
290.91788
290.92142
290.72638
290.41467
289.84399
288.41199
288.76347
289.54528
289.76848
266.64154
266.33975
266.56057
266.4531
266.47154
267.06403
267.22371
267.25761
267.25756
267.22323
267.06301
266.47081
266.45154
266.55835
266.33923
266.63972
266.43339
265.85924
265.66229
266.71556
267.13386
267.39141
267.54983
267.59826
267.81975
267.7011
267.74323
267.67975
267.74315
247.95412
247.94
247.86235
247.86265
247.84504
247.95263
247.78729
247.76796
247.76939
247.79927
247.96705
247.86871
247.88961
247.89472
247.95529
247.94779
267.7349
291.01633
290.92998
291.10222
291.01053
267.67354
267.80753
267.58877
267.5506
267.39379
267.14131
266.72229
265.66809
265.86574
266.43811
246.8002
246.98211
246.78753
246.91248
246.82314
246.87582
247.3568
247.45893
247.48846
247.4884
247.45853
247.35599
246.8751
246.82179
246.91066
246.78687
246.98042
246.79621
246.36869
246.26764
247.06283
247.38566
247.60111
247.7349
247.80191
248.00095
247.89092
247.90694
247.89856
230.86755
230.91551
230.90359
230.83692
230.81314
230.80955
230.9048
230.76327
230.73631
230.73797
230.77311
230.91764
230.82968
230.83649
230.8636
230.91653
230.91062
230.85285
247.88096
267.65862
267.71915
247.88621
247.86827
247.98959
247.79393
247.73472
247.60301
247.3914
247.06846
246.27263
246.37406
229.57417
229.89505
230.05512
229.93095
230.00103
229.93131
230.00113
230.39201
230.4638
230.49004
230.48998
230.46345
230.39133
230.00044
229.93013
229.9995
229.93022
230.05354
229.89163
229.56964
229.52719
230.13932
230.39919
230.58343
230.6992
230.77376
230.94462
230.84936
230.85107
216.0001
216.02598
216.0669
216.05677
215.99988
215.96747
215.97094
216.05174
215.93492
215.90553
215.90722
215.94313
216.06309
215.98819
215.9877
216.0221
216.06779
216.0631
216.01364
215.9849
230.83332
230.83061
230.93439
230.76704
230.6986
230.585
230.40377
230.1441
229.53154
214.91387
214.92147
215.16526
215.30456
215.22688
215.26549
215.21356
215.28968
215.60781
215.66327
215.68685
215.68679
215.66297
215.60725
215.28904
215.21253
215.2642
215.22613
215.3031
215.1623
214.9176
214.91004
215.38855
215.60427
215.76394
215.86555
215.94131
216.08447
216.00537
202.93882
202.93079
202.95858
202.99326
202.9846
202.93618
202.90256
202.90902
202.97581
202.88118
202.85218
202.8538
202.88811
202.98585
202.92392
202.92013
202.95488
202.99405
202.99031
202.94816
202.91774
202.92564
215.98973
216.07539
215.93562
215.86477
215.76528
215.60803
215.39267
202.40188
202.02273
202.01013
202.19687
202.31728
202.27044
202.29106
202.25384
202.32991
202.58951
202.63551
202.65687
202.65682
202.63525
202.58903
202.32932
202.25294
202.28995
202.26968
202.31592
202.19428
202.00677
202.01934
202.39829
202.58102
202.72065
202.81059
202.884
203.00275
191.38815
191.33741
191.32888
191.35523
191.38454
191.37707
191.33585
191.30432
191.31157
191.36593
191.28989
191.26279
191.26431
191.29583
191.37483
191.32453
191.31964
191.35174
191.38523
191.38223
191.34637
191.31763
191.32621
191.38106
202.99472
202.87914
202.80977
202.72181
202.58416
191.02022
190.8639
190.5601
190.53637
190.68056
190.78428
190.75794
190.76847
190.74282
190.8154
191.02808
191.06796
191.08747
191.08742
191.06773
191.02767
190.81486
190.74202
190.7675
190.7572
190.78302
190.67828
190.53345
190.55709
190.86076
191.01757
191.14052
191.22063
191.2898
180.9215
181.00326
180.96349
180.95554
180.97912
181.00387
180.99739
180.96226
180.93404
180.94102
180.9849
180.92392
180.89944
180.90083
180.92907
180.99281
180.95238
180.94747
180.97589
181.00449
181.00206
180.97156
180.9458
180.95388
180.99699
180.91783
191.2856
191.21981
191.14152
180.78661
180.67913
180.54386
180.29772
180.26836
180.38055
180.46974
180.45703
180.46212
180.44531
180.51279
180.68795
180.72336
180.74132
180.74128
180.72317
180.6876
180.51231
180.44463
180.46128
180.45633
180.46859
180.37855
180.2658
180.29504
180.5411
180.67686
180.78576
180.85746
171.53509
171.59373
171.66211
171.63122
171.62427
171.64476
171.66564
171.65998
171.62999
171.60537
171.61161
171.6469
171.59795
171.57636
171.5776
171.60245
171.65396
171.62165
171.6172
171.64177
171.6662
171.66422
171.63826
171.6158
171.62291
171.65653
171.59047
171.53429
180.85666
180.91695
180.9896
180.79226
180.83949
180.94037
180.4465
180.54816
180.69113
180.75096
180.67627
180.602
171.32516
171.1777
171.2395
171.38465
171.41652
171.43317
171.4331
171.41636
171.38438
171.23913
171.17717
171.18718
171.18487
171.18817
171.11077
171.02235
171.0539
171.25539
171.3737
171.47066
163.04641
163.10449
163.15782
163.21546
163.19165
163.1858
163.20327
163.22086
163.21585
163.19019
163.169
163.17439
163.20277
163.16339
163.14463
163.14581
163.1674
163.20914
163.18335
163.17951
163.20047
163.22134
163.21974
163.19764
163.17837
163.18438
163.21046
163.15491
163.10372
163.04696
171.47136
171.37564
171.25779
171.05625
171.02456
171.11249
171.18915
171.18545
171.18784
162.79811
162.79294
162.84907
162.97015
162.99902
163.01453
163.01454
162.99898
162.97005
162.84894
162.79271
162.7978
162.79656
162.79399
162.72739
162.65757
162.68947
162.85609
162.95974
155.3135
155.39124
155.44373
155.49201
155.541
155.52275
155.5179
155.53266
155.54747
155.54301
155.52096
155.50283
155.50742
155.53031
155.4985
155.48243
155.48352
155.50212
155.53612
155.5155
155.51223
155.53002
155.54788
155.54658
155.52772
155.51131
155.5163
155.53645
155.48932
155.44288
155.39154
155.31466
162.96135
162.85811
162.6914
162.65932
162.72869
162.79463
162.79683
155.17101
155.17206
155.17054
155.22135
155.32309
155.34936
155.3639
155.36399
155.34956
155.32341
155.22181
155.17105
155.17258
155.17156
155.16523
155.1078
155.05223
155.08332
155.22235
148.25336
148.33355
148.4034
148.45087
148.49442
148.53651
148.52253
148.51846
148.53096
148.54347
148.53944
148.52036
148.50476
148.50873
148.52735
148.50141
148.48781
148.48883
148.50474
148.5327
148.51611
148.51327
148.52843
148.54381
148.54274
148.52657
148.51253
148.51669
148.53226
148.4918
148.44978
148.4032
148.3339
148.2537
155.22379
155.08456
155.05316
155.10823
155.16502
148.19909
148.20742
148.20866
148.20972
148.25574
148.34199
148.36588
148.37967
148.37996
148.3667
148.34332
148.25766
148.21206
148.21119
148.21005
148.20136
148.1516
148.10688
148.13645
141.76442
141.86319
141.93324
141.99593
142.03876
142.07783
142.1146
142.10375
142.10015
142.11101
142.12173
142.11802
142.10124
142.0875
142.0911
142.1065
142.08486
142.07349
142.07446
142.08797
142.11152
142.09794
142.0953
142.10853
142.12198
142.12111
142.10703
142.09472
142.09835
142.1105
142.07505
142.03711
141.99471
141.93197
141.86125
141.76105
148.13623
148.10603
148.15005
141.76772
141.81024
141.81992
141.82141
141.82407
141.86603
141.94
141.96154
141.9749
141.97566
141.9638
141.94369
141.87135
141.83069
141.82865
141.82742
141.81731
141.77375
141.73694
135.86937
135.89395
135.97723
136.03691
136.09268
136.13093
136.16561
136.19873
136.18996
136.18648
136.1966
136.20613
136.20268
136.18746
136.17459
136.17814
136.19125
136.17214
136.16279
136.16372
136.17511
136.19604
136.18458
136.18186
136.19413
136.2063
136.2056
136.19294
136.18143
136.18488
136.19459
136.16236
136.12814
136.0894
136.03236
135.97056
135.88396
135.85607
141.73212
141.83869
141.89455
141.96086
141.98472
141.95933
141.92787
136.03684
135.93769
135.97648
136.04093
136.05986
136.07335
136.07512
136.06528
136.04975
135.98911
135.95359
135.95195
135.95111
135.94018
135.90119
130.47116
130.44092
130.46108
130.52998
130.57756
130.62588
130.65919
130.68931
130.72076
130.7131
130.70934
130.72008
130.72925
130.726
130.71143
130.69802
130.70184
130.71345
130.69466
130.6871
130.68801
130.69756
130.71808
130.70798
130.70487
130.71761
130.72934
130.72879
130.7167
130.70462
130.70823
130.71638
130.68512
130.65426
130.61873
130.56663
130.51403
130.438
130.41075
130.43639
135.88555
135.92274
135.93303
135.93453
130.48071
130.48293
130.51948
130.57691
130.59249
130.60699
130.61074
130.60423
130.59592
130.54665
130.51732
130.5184
130.51893
130.50756
125.46793
125.43164
125.39866
125.41147
125.46518
125.49696
125.53617
125.56358
125.5886
125.62079
125.61339
125.60909
125.6224
125.63219
125.62906
125.6141
125.59824
125.60254
125.61329
125.59202
125.58596
125.58685
125.59486
125.6178
125.60842
125.60476
125.61991
125.63226
125.63183
125.61926
125.60468
125.60871
125.61598
125.58284
125.55497
125.52224
125.47453
125.43237
125.3645
125.3375
125.36178
125.39188
130.46942
130.47977
125.40179
125.40125
125.40061
125.43576
125.48834
125.49925
125.51603
125.52331
125.52251
125.52592
125.48943
125.46882
125.476
125.47956
120.79544
120.78365
120.74452
120.70353
120.70391
120.73916
120.74926
120.77616
120.79604
120.81514
120.8508
120.8431
120.83834
120.85655
120.86814
120.86514
120.84867
120.8281
120.83278
120.84303
120.81607
120.8111
120.81197
120.81883
120.84738
120.83835
120.83424
120.85411
120.86823
120.86793
120.8537
120.83435
120.83869
120.84545
120.80718
120.78179
120.75155
120.70799
120.67825
120.61689
120.59009
120.61567
120.64409
120.65317
120.65003
120.64421
120.67836
120.72772
120.73215
120.75264
120.76558
120.77433
120.79596
120.77596
120.76882
120.78661
116.43241
116.44884
116.43698
116.39216
116.33769
116.31779
116.32783
116.30882
116.31864
116.329
116.34154
116.38296
116.3753
116.37095
116.39603
116.41053
116.40775
116.38882
116.36176
116.36605
116.37555
116.3404
116.33593
116.33675
116.34299
116.37959
116.37116
116.36738
116.3938
116.41056
116.41037
116.39359
116.36756
116.3714
116.37733
116.33125
116.30761
116.27958
116.24031
116.22484
116.16975
116.14391
116.17289
116.20052
116.20841
116.20181
116.18898
116.22158
116.26812
116.26442
116.2896
116.31053
116.33396
116.38169
116.38525
116.39915
112.37377
112.42595
112.45093
112.43913
112.38739
112.31565
112.26351
112.23592
112.18045
112.16786
112.16736
112.17388
112.22115
112.21614
112.21466
112.24646
112.26384
112.26143
112.24037
112.20727
112.20913
112.2159
112.17319
112.1686
112.16932
112.17547
112.21943
112.21353
112.21212
112.24467
112.26379
112.26367
112.24455
112.21218
112.21329
112.21619
112.16255
112.1396
112.11349
112.07903
112.07758
112.0315
112.0095
112.04121
112.06694
112.07305
112.06347
112.04418
112.07301
112.11442
112.10275
112.132
112.16229
112.20591
112.28732
112.32706
108.64729
108.74785
108.81841
108.84767
108.83581
108.78135
108.69345
108.58782
108.49733
108.39855
108.36075
108.35083
108.35322
108.40215
108.40763
108.41415
108.44818
108.46657
108.4646
108.44374
108.40962
108.40459
108.4021
108.35811
108.35424
108.35482
108.35991
108.40486
108.40795
108.41324
108.44712
108.46654
108.46634
108.44697
108.41311
108.40678
108.39982
108.34446
108.32227
108.29775
108.26757
108.27618
108.25006
108.23917
108.26534
108.28221
108.28501
108.27596
108.25601
108.27591
108.30403
108.28821
108.31922
108.35713
108.42388
108.54622
105.19001
105.41166
105.60286
105.68495
105.70507
105.69298
105.64934
105.55229
105.3571
105.14483
104.98752
104.93179
104.91981
104.91706
104.95499
104.99175
105.01203
105.03771
105.06446
105.06519
105.0373
105.0109
104.99397
104.96317
104.93358
104.93824
104.93858
104.93469
104.96493
104.99622
105.01311
105.03752
105.06448
105.06636
105.03942
105.01272
104.99382
104.95788
104.91625
104.90233
104.87899
104.8463
104.85487
104.88326
104.89795
104.8935
104.88439
104.88744
104.88288
104.87459
104.87449
104.86519
104.85773
104.89072
104.9285
105.01138
101.87747
102.13594
102.7013
103.07782
103.10047
103.07971
103.06915
103.06841
103.03117
102.65185
102.09502
101.85614
101.75406
101.75175
101.81228
101.73556
101.94652
101.95257
101.95025
102.08965
102.08873
101.95042
101.95505
101.95417
101.75329
101.84364
101.7985
101.79861
101.84402
101.75417
101.95511
101.95482
101.95053
102.08955
102.08928
101.95139
101.95508
101.95206
101.74602
101.82548
101.76197
101.73944
101.75937
101.69326
101.96879
101.89208
101.82014
101.80704
101.92973
101.82079
101.83103
101.83737
101.65497
101.75839
101.72447
101.75106
99.360552
99.399003
99.667215
100.63372
101.38847
101.20753
101.14673
101.13508
101.17809
101.34723
100.5892
99.63239
99.376594
99.368826
99.363275
99.398174
99.37999
99.471928
99.487828
99.497452
99.504285
99.505001
99.500994
99.493333
99.482579
99.404197
99.437836
99.435194
99.435833
99.436803
99.402793
99.481751
99.493244
99.496965
99.504164
99.505571
99.500697
99.494643
99.481154
99.393785
99.423596
99.395329
99.394379
99.354699
99.407665
99.922175
99.882289
99.494469
99.401193
99.392555
99.391134
99.385928
99.370528
99.309396
99.341299
99.340705
97.099562
97.085537
97.164253
97.434626
97.361279
97.227502
97.232081
97.195981
97.219992
97.309645
97.428816
97.122052
97.124671
97.095768
97.21186
97.291462
97.195713
97.174996
97.394599
97.288503
97.290569
97.401045
97.18044
97.209424
97.325611
97.251081
97.206527
97.211244
97.244177
97.327147
97.204443
97.179826
97.392057
97.287536
97.29145
97.399519
97.176641
97.215998
97.303376
97.267177
97.139816
97.238876
97.146279
97.399234
97.018452
96.94196
97.321358
97.364365
97.209591
97.312043
97.106287
97.087197
97.250281
97.118213
97.07445
97.115107
97.253586
97.225937
97.404405
97.896721
98.40447
98.30993
97.780666
97.386723
97.275468
97.303031
97.163119
97.163618
97.337874
97.266464
97.379774
98.146673
100.12503
102.15303
102.27157
100.27188
98.196474
97.374481
97.268789
97.376903
97.108234
97.124042
99.381621
99.331104
99.769624
99.848508
101.26816
99.962607
99.871555
99.517529
99.892606
101.19786
99.827885
99.309282
99.337413
99.809053
99.76835
99.388996
97.279394
97.227192
97.370711
97.459556
97.434112
97.253082
97.308387
97.403963
97.132654
97.201991
99.369239
99.332845
99.774416
101.20605
99.840523
99.926472
99.852112
99.434886
99.538008
100.25511
101.40372
100.11825
100.10947
100.25853
99.898194
99.247272
99.259383
99.870762
100.15871
100.12444
101.37822
99.84091
99.92942
99.466406
97.276077
97.359422
97.27092
97.329303
97.083046
97.009443
99.392513
99.890149
99.980207
101.36807
99.915745
99.390762
99.855217
99.502619
101.93165
102.12748
101.95815
101.71198
101.93873
101.82397
102.02336
105.05859
108.53483
108.61175
108.46276
104.96688
105.07029
105.16123
105.00181
108.53387
108.64209
108.44658
105.00441
105.05285
108.51409
108.55227
105.0795
102.0297
99.459208
99.64007
99.447894
99.499328
99.569194
99.276446
101.83679
102.23235
102.80165
102.02381
102.26778
103.41782
100.6605
100.08937
102.8302
100.38363
99.455576
99.355576
99.578585
102.05789
101.94268
102.38658
102.4333
102.77481
100.72165
99.745612
99.405334
99.346552
99.326991
99.380764
99.703557
100.68105
100.62777
100.62161
100.63333
100.65742
102.85868
102.87347
102.69914
102.59914
99.78257
97.363502
97.783463
100.01394
104.82403
108.26119
108.76539
108.72506
108.18507
104.72884
103.76146
100.02719
99.540853
99.535114
100.01921
103.7996
104.74902
108.29015
108.81031
108.80866
108.29343
104.79377
103.84808
100.07689
99.594157
99.596362
98.176505
97.431746
97.288052
97.094108
97.152127
97.39669
97.330019
97.331895
97.400463
97.151957
97.098653
97.286931
97.431474
98.18598
99.650579
99.673746
100.16761
104.00207
105.00851
108.68413
109.25174
109.3194
108.7734
105.12427
104.11388
100.21175
99.696789
99.6776
100.17606
103.87451
108.37444
111.03441
116.5394
125.00279
133.75818
138.36214
138.282
133.62605
124.80618
116.42821
111.04591
108.39662
103.88756
100.21182
97.905644
97.414744
97.505346
98.43206
102.20117
108.32293
104.81578
109.90678
113.80375
124.65371
132.40917
138.37888
145.41021
150.12154
154.01417
155.71608
155.7336
154.04479
150.30209
145.56524
138.64952
132.64222
124.87662
138.58484
145.74511
154.13078
159.80119
164.61232
166.6415
166.63765
164.5821
159.69941
153.95665
145.47792
138.34108
145.25823
133.22175
120.43007
115.48913
116.2992
108.83034
108.83607
102.19876
98.431118
97.50431
97.413257
97.905587
100.19949
104.78987
108.30513
115.4764
116.3171
121.9095
121.89756
137.70182
153.68219
149.85717
159.46014
153.82507
162.97043
170.59929
176.23093
178.99411
178.98663
176.22434
170.66552
163.12939
154.10633
145.50228
133.47727
150.15467
159.80281
170.66022
180.19315
186.90263
190.27511
190.39533
186.98933
180.15193
170.49614
176.09873
164.27794
166.3191
155.33103
155.36622
137.71304
153.70966
164.32387
166.36291
178.83078
178.84505
190.22073
186.87012
194.57661
198.40944
198.309
194.5074
186.89424
176.25005
164.62312
153.96716
138.00636
155.59261
166.62427
178.97853
190.19534
198.27814
202.35139
202.41985
198.41028
198.37287
190.27281
186.90543
176.05397
170.50495
159.50041
149.90466
133.19375
120.41028
113.75246
109.88537
108.34632
103.84172
100.07189
102.25763
104.2879
110.97085
116.32946
124.52706
138.27506
145.23339
153.81048
162.89165
170.54446
180.11461
186.96254
194.56009
198.4267
202.41734
202.34959
198.27775
190.30997
178.96072
166.60023
155.5528
137.93852
153.85949
164.53183
176.2678
186.98239
194.48204
198.33483
190.33273
190.3457
178.90401
176.13932
164.39457
159.53488
153.81939
145.36225
138.2514
132.31311
124.52952
133.20167
145.21747
149.92597
153.76077
155.39526
166.40051
166.37278
178.82998
176.11404
186.92935
180.23776
170.63389
159.69807
150.06323
133.32413
145.35865
153.98376
163.04331
170.61549
159.58649
164.32671
153.72567
155.36903
137.73541
137.71587
121.87515
120.38985
113.76532
110.9875
108.36447
102.26633
101.17805
102.6898
103.36859
111.03189
112.17818
119.09385
119.70347
119.66906
119.07847
112.17002
111.02399
103.46761
100.14947
102.38192
101.26546
102.37327
108.50268
110.09289
115.82526
116.70872
116.78758
115.94534
110.21446
108.6374
102.42168
101.30024
102.41723
104.50498
111.29081
114.15977
120.95751
122.49321
122.38918
120.79495
114.02573
111.12167
104.43647
104.70666
103.45124
111.12247
112.29357
119.3183
119.94242
120.02643
119.43332
112.41046
111.24206
103.50163
102.78818
103.88517
103.49983
104.7714
112.261
113.45446
114.43639
121.81488
122.05059
122.92566
138.38003
133.96525
125.50024
117.14691
111.98472
110.95183
113.1322
112.09771
109.90375
113.82792
120.35835
115.39184
116.19264
121.83766
121.80026
116.1465
115.29993
120.23873
113.69015
124.62856
132.36786
138.36054
145.30123
149.99348
133.2389
124.55349
116.28703
110.86473
108.25267
109.79168
112.01544
118.79526
119.39572
119.44054
118.86625
121.43419
121.20575
114.1142
125.36818
133.70784
137.91324
141.23947
141.54342
138.80622
145.86956
138.75337
141.52221
145.62761
155.72552
151.43016
146.75818
150.68261
154.59016
156.00748
159.62938
159.89067
154.80152
163.60584
154.80425
146.7005
133.67492
151.3647
155.92787
155.66254
159.63987
154.50056
150.53202
159.92332
165.04507
154.86005
138.00232
122.26986
122.23723
121.38121
121.11144
114.00171
113.06498
110.87206
111.88068
116.98221
125.19113
133.55511
137.9449
156.16756
156.20961
160.93756
159.82311
163.80158
165.43348
166.83807
166.8289
179.37073
176.6909
171.10361
171.49008
163.99633
171.47737
171.07272
180.86054
181.58611
188.37532
176.93583
165.39166
159.88026
154.92628
156.36488
160.9994
163.88563
166.72951
166.80409
164.97494
176.62901
179.36248
179.59374
191.70653
190.92277
187.5856
195.21925
187.62425
188.39884
176.981
179.62611
191.698
190.85628
199.02165
199.79776
196.01327
199.82764
198.99052
203.09569
203.85963
204.82831
200.8282
192.70034
179.97891
177.35287
171.98881
164.35131
166.01146
173.80178
183.98328
173.81609
171.98353
182.57676
189.37521
190.63984
178.96623
181.6987
193.93281
195.02028
181.79707
166.86318
140.96206
136.60216
128.51504
120.32539
118.0318
125.76689
133.84384
137.96971
137.89339
121.9502
122.79948
121.66212
114.31961
113.33219
112.12329
117.09094
125.34395
133.8586
138.29412
156.31104
160.96728
163.86099
159.78852
154.89056
164.97978
166.81826
166.74282
165.33295
159.6032
154.49864
150.50226
146.64369
151.33095
155.9375
155.57977
154.66966
159.81639
171.03165
176.67699
179.37269
179.59469
176.9522
188.46732
191.78676
191.09889
187.71129
180.8461
181.59695
171.40617
163.91109
163.51212
170.97282
171.40244
176.90176
188.40514
196.15004
199.90479
199.13758
195.29388
199.17225
203.1808
203.96098
200.002
191.75911
190.91347
187.56381
176.5971
179.26376
179.55958
166.58088
165.18493
159.43771
155.51857
145.46279
141.39251
138.57104
133.502
125.29576
137.74594
141.08502
141.35451
138.52445
145.63264
154.53879
146.48057
133.6335
151.21194
155.79945
154.29339
150.27734
159.60524
164.71031
154.61485
137.94967
159.64604
163.65843
160.7135
155.96867
166.53835
166.61043
179.27616
190.99666
199.16328
203.21714
203.13737
199.05233
190.99568
179.35307
166.79405
166.75948
160.90089
163.78468
159.73246
154.75503
164.9316
165.29615
159.58455
154.45636
150.43558
159.81587
154.71387
146.59216
151.30693
155.87945
155.62877
163.95988
171.483
176.94608
179.59338
191.71554
188.43602
187.70386
176.72459
171.08191
180.90653
181.64347
171.5049
171.10287
163.59494
154.67368
153.95042
145.49916
138.34249
138.5441
141.38841
141.07971
145.48818
145.6865
138.55313
125.21714
133.46525
137.74327
141.42016
151.29263
155.59943
155.86925
159.50014
159.73988
150.36229
133.6619
146.51968
154.39098
159.73057
165.24266
176.95286
188.4198
196.13022
199.85543
203.93284
199.95116
199.06929
195.21273
187.61073
191.0467
191.80079
179.618
179.27527
176.55186
164.74885
166.6404
166.64807
163.75164
160.75446
137.99229
154.62141
155.99862
156.03286
166.68147
179.36717
191.10581
199.19967
200.03029
204.01668
199.96836
196.21936
195.38979
187.67486
188.48898
191.73638
179.58988
176.93488
176.55083
171.01212
180.86742
187.73637
188.56701
191.88982
179.68602
177.05896
176.65044
171.0657
171.54445
181.66217
171.46984
163.94968
163.50292
154.595
159.7126
164.79178
165.2161
166.62027
163.68999
160.78007
137.97594
156.0013
154.63689
159.67883
154.41098
159.50823
155.85043
155.54587
151.25201
133.63583
150.32601
146.49382
138.51348
145.59858
154.60254
159.74559
164.86234
165.29847
166.68174
163.78595
160.81865
137.98899
154.68206
159.72357
154.44866
159.5434
155.8932
155.55993
151.26044
133.65684
150.34796
146.48736
138.48221
125.23841
141.34912
145.42334
141.02111
141.40695
125.22973
133.44246
137.77254
117.06752
117.99098
125.57117
133.61775
137.63533
137.59783
133.58962
125.61204
117.99258
125.6404
133.77139
136.4904
140.91413
166.84804
158.73162
161.68842
138.06801
127.8146
108.77711
103.33174
102.06557
101.92041
99.500307
99.484608
99.467688
101.89857
102.09437
102.10357
101.83418
101.69922
101.80955
102.16495
102.69448
99.977678
100.55469
105.18605
105.30129
108.85872
106.016
103.36694
102.26866
103.37941
100.36861
98.149327
97.440717
97.430705
99.816276
99.671883
100.1057
102.93512
103.48827
100.55278
98.14169
101.7807
101.74952
98.125966
97.373949
97.389127
99.820516
99.809351
102.68851
102.86202
102.82679
102.57125
99.756484
97.342907
97.759637
99.970471
98.108749
97.415978
97.399425
97.362443
97.260664
97.364965
98.155316
100.18219
102.19228
102.19454
100.19841
98.17524
97.391681
97.27361
97.347344
97.164412
97.201114
97.313467
97.273567
97.431716
97.902267
98.426856
98.426528
97.895935
97.41442
97.24368
97.267311
97.140182
97.088551
99.320607
99.376828
99.865024
99.956295
99.839714
101.25763
99.757425
102.01329
102.02905
102.39638
102.73044
105.48432
105.6067
105.67476
105.68696
105.64119
105.53269
108.80067
112.47638
116.50885
116.6531
116.54867
116.44586
112.33377
112.43606
112.2808
116.41013
116.5464
116.67659
116.47981
112.35835
112.46075
112.24267
116.36008
116.41848
112.31051
112.3492
116.45211
116.80825
116.70452
116.56693
116.8448
112.79384
112.58177
108.74871
108.99473
105.43536
105.1197
105.28315
108.81112
108.93978
105.40905
106.65133
106.01109
109.53193
110.16982
113.8635
112.73963
112.62003
113.2675
117.23848
117.76724
123.40449
120.11906
117.67327
116.90747
116.70118
112.62056
112.46391
108.6874
105.22246
105.2506
108.80817
109.08902
108.85303
105.44
105.57618
106.16335
105.64204