/*--------------------------------*- C++ -*----------------------------------*\
  =========                 |
  \\      /  F ield         | OpenFOAM: The Open Source CFD Toolbox
   \\    /   O peration     | Website:  https://openfoam.org
    \\  /    A nd           | Version:  7
     \\/     M anipulation  |
\*---------------------------------------------------------------------------*/
FoamFile
{
    version     2.0;
    format      ascii;
    class       surfaceScalarField;
    location    "40";
    object      phi;
}
// * * * * * * * * * * * * * * * * * * * * * * * * * * * * * * * * * * * * * //

dimensions      [1 0 -1 0 0 0 0];

internalField   nonuniform List<scalar> 
74922
(
-0.16878593
0.3244149
-16.374717
21.541939
-2.5336939
-2.7891577
0.10482656
-16.28289
-1.2116315
17.02371
-17.609055
17.975393
-0.0031952838
-18.152932
0.22771003
0.29989084
-0.0003391916
0.62101777
0.024483132
-0.42243831
0.68734674
-0.63342214
16.347822
-1.9077322
-2.091132
29.524473
-0.32733499
-0.83792112
21.548488
1.7766636
-0.62127447
17.641712
-0.49266786
-2.145831
24.774477
-0.083309408
-1.6720877
27.797652
0.35616268
-1.674416
27.855818
-1.8442577
-2.1532458
24.916449
0.33654877
-0.61022929
17.773836
1.8326394
-0.82977929
21.697083
-0.46549835
-2.0875055
29.813518
-0.74564976
-0.65229536
16.494324
0.46975273
-0.48620084
18.423695
0.40254433
-0.51028246
18.295067
0.26307628
-0.77015949
16.693573
-6.5420674
-0.69846298
29.909794
-7.2600677
1.6403702
27.551642
3.6774868
-0.1393082
28.55429
7.101683
1.5484474
19.843832
4.5903971
-1.9582224
25.435888
-2.6571057
-3.9659574
26.016592
-3.3979716
-1.327743
22.480783
0.85308034
1.3415072
17.491888
7.6452423
2.1683851
24.760484
-0.74007268
-0.22297623
28.387741
0.042651144
-0.68469229
16.418616
0.00042646075
-0.62354909
17.933326
-0.042351655
-0.62374354
17.933353
0.73959952
-0.68544711
16.419267
-7.6304241
-0.22541732
28.379464
-0.85285584
2.1627427
24.752746
3.4073816
17.464872
1.3370088
2.6603309
22.441175
-1.3322705
-4.6056175
26.057221
-3.9595451
-7.097171
25.497313
-1.9439864
-3.674957
19.860271
1.5667792
7.2702466
28.579628
-0.11172618
6.5571426
27.577391
1.6595018
-0.27135444
29.927382
-0.68729288
-0.37630797
16.706855
-0.76452959
-0.4937879
18.293662
-0.50804011
0.78762471
18.425293
-0.48368233
0.41955013
16.463044
-0.65223284
-1.7986239
29.797456
-2.0811073
-0.41585214
21.62916
-0.83397168
1.7884108
17.688275
-0.60187979
-0.50472135
24.848435
-2.1445356
-0.094067419
27.821107
-1.663633
0.3536033
27.847449
-1.6709753
-1.8041279
24.901886
-2.1663674
0.25815371
17.680484
-0.61640189
1.9775252
21.629936
-0.80909991
-0.73629217
29.61718
-2.0749599
-0.55145345
16.381265
-0.62595247
-0.42366424
18.148371
-0.39765843
0.80853686
7.5353964
0.39972414
31.279194
-0.18857957
-0.16751729
0.83380631
7.5332858
1.4033642
5.8003411
-3.8804132
-1.1922628
33.056099
-0.5114777
-3.4947437
1.5315804
36.000445
1.3807794
7.9753023
2.5995522
5.9192408
-0.18844307
-1.6744031
25.936444
-0.051174944
-3.1563496
29.026542
0.10603833
-3.1559951
29.069337
-2.645923
-1.6889381
26.042858
-1.3990011
5.94975
0.52604479
8.0252655
3.9655564
-3.5102888
1.5485498
36.145537
-1.244529
-1.2742583
33.180126
-0.80327346
5.8264658
-0.37212025
7.5762062
0.66140762
-0.73793777
-0.38746229
30.998859
0.68931211
7.4411527
0.80102481
5.753026
-5.9264023
-1.0620112
31.556861
-7.1499188
-3.5013449
38.344726
-1.3464966
-5.1814753
40.892907
1.3771686
4.4511704
-6.0321269
44.687907
7.0940094
8.4631606
4.9152833
8.9894718
-3.4713013
-0.56726035
25.331368
-4.6545434
8.25098
0.55361781
7.8799316
2.8206815
-4.9126069
3.2238702
42.347655
-5.7929986
47.733385
0.020373274
-6.9509038
1.3100006
42.821532
2.0453616
-7.0337284
42.420055
3.9928727
-6.4071037
40.547295
3.9007394
-5.1108943
38.071839
-3.5996167
38.402015
3.641751
-3.863694
-4.2659459
38.120117
-2.6702082
38.875798
-4.8273612
-1.9687061
37.599221
-5.0853759
-3.0636486
39.689505
5.0982205
-4.2079277
-3.8841289
41.554436
-3.8277778
40.039098
-2.3002238
-5.9554947
41.79558
-0.28921329
-6.3816077
43.066375
1.7036829
-6.3666173
43.265399
6.2880303
3.3791424
-5.937893
42.281931
2.8772312
41.255745
3.3715205
3.6986739
-5.0758276
38.646252
6.8877004
38.197041
-0.80499822
-0.78587338
32.884539
-0.4256269
5.7044003
-0.49243992
7.3718715
-0.75183106
-0.75193242
0.49390821
30.686966
-3.6579097
38.72202
-4.1358084
-4.1387196
3.6572918
38.423974
-5.1478415
40.570347
-3.9447691
-3.9570099
5.1393899
42.300266
-1.9784841
-4.4092796
43.726568
0.29376158
-4.6474713
44.434029
2.4826955
-4.6540659
44.246136
-4.4097662
43.206802
4.5448159
-2.2430796
-2.6237911
44.211307
5.6770828
-2.0034563
42.6026
5.6800152
-1.576508
40.479477
4.4142993
-0.90258671
38.127963
-0.34026953
37.383811
-4.9345808
0.044272326
33.54139
-6.0776854
0.053896232
37.835596
-5.9600801
0.075646993
40.790261
-4.7011291
0.10517783
43.051196
-2.6795248
0.13865263
44.645898
2.3397957
0.17390344
-0.25203373
45.554578
-0.27319074
45.166088
2.1796005
-2.3231688
45.383177
4.3869564
-2.2058832
44.865248
5.9212129
-1.9930549
43.732412
3.3841883
-1.7102446
6.2772931
42.290642
5.0712384
40.573762
3.6983373
-2.8779714
3.3717969
38.650227
0.78874601
38.723669
-0.80439876
-6.8836944
32.885126
-0.42618639
5.7045956
7.3720207
0.4000932
4.391802
2.5801255
2.201339
3.9033499
0.13705385
2.427221
-0.3031651
-0.059770776
-0.1356464
0.52839714
16.27141
-9.007594e-05
17.65713
0.1403399
0.13514573
17.657443
0.14018832
0.52686777
16.270719
-0.13701565
0.83548523
30.988889
-2.6865755
-16.824348
0.12822587
19.126253
-1.5553326
1.5311261
6.3721075
14.352411
4.6193193
-0.55793036
16.015139
-1.1442057
0.11022806
23.826862
-1.987076
-1.3182203
30.99584
-3.4519729
-0.36997229
27.870832
-2.5639114
2.5541575
23.614333
-22.905323
-2.5094226
-0.2417169
16.020764
-11.402045
-1.7454945
-3.9937023
19.393939
-14.046324
-1.7535384
-1.0245801
30.122604
-2.7584505
-0.43709482
16.482657
-0.20608854
-0.23829642
17.878356
0.23385452
0.1418534
17.796329
0.21511747
0.34058752
16.43058
-0.048601532
-0.26648585
32.044644
-1.4831169
0.18653045
20.946486
0.2407482
0.63106011
17.271989
-0.030600584
0.015502696
26.82433
-1.3789795
0.057881533
29.012552
-1.2233398
0.076021281
28.987258
-1.2225333
-0.58632164
26.740109
-1.3775637
-0.17979776
17.187137
-0.033571722
0.25014583
20.821005
0.2405278
-0.43917122
31.809257
-1.4666136
-0.045769863
-0.081071412
-2.2016952
-0.21243136
2.4494281
-2.5674169
3.083434
-0.29719771
0.43554512
4.5303238
4.034191
4.8223638
-0.17015701
-0.83044713
-6.0194909
-1.9565219
-2.4893265
32.337597
-2.4757212
1.9501226
-38.983491
37.994399
-1.9151698
-2.678759
3.0936951
-3.3903673
-2.5676824
1.1748517
3.4177252
-3.687844
-3.7282889
38.165406
-2.5403738
38.965353
-1.9517522
-4.7306417
37.514985
4.4073787
-0.97734455
-5.6438469
38.027068
-0.40814577
37.275049
-4.9328183
33.503437
-6.0681321
37.794649
-5.9356493
1.6783963
40.730514
-4.6640496
2.1460485
42.948821
-2.6428572
2.4348962
44.484625
-0.2302831
2.5894479
45.343052
-0.21005188
2.2859214
2.6399404
45.563249
2.2829718
45.79142
4.612847
0.24592344
45.391147
6.3397434
0.27862552
44.447378
6.9320157
0.28247699
43.280875
1.31207
5.7804921
0.01820161
42.836654
4.907284
41.264297
3.222498
-0.55121245
2.8208586
42.352098
38.197046
4.8952128
3.0688769
-3.5503844
38.83944
-5.0560993
-2.7171857
1.0377731
6.2132733
0.36135209
-6.3704432
0.49357707
3.1596804
16.806499
1.5332147
-0.8368385
0.12804968
-1.5513468
19.136328
30.993513
-2.6847317
1.029938
2.2137063
29.789987
-2.1755967
0.04916193
17.036484
0.029058929
-0.00051576571
18.060904
-0.4181186
-0.049942978
18.061372
-0.4184761
-1.0311892
17.036614
0.029143744
2.21142
29.790414
-2.1769361
0.039246122
21.754946
-0.571386
-0.98952694
17.363637
-0.38762798
-1.7506638
25.614226
-0.96811592
1.2538018
29.469742
-1.4935619
1.2095016
29.120319
-1.3232621
0.39609379
25.268795
-1.1333047
-0.16161979
17.343183
-1.0614181
-1.3170777
21.758955
-1.3286919
0.47176009
29.846339
-1.645369
-0.25021076
17.021563
-0.04195062
-0.28958121
18.104634
-0.27797239
-0.23167273
18.097504
-0.41509344
-1.323051
17.134027
0.20122613
1.6659917
30.201534
-1.28196
0.037292613
22.415787
0.15827374
-0.99920835
18.148952
0.19288977
-0.075803929
26.500217
-0.54905291
0.037616442
29.997922
-1.0812342
0.14051891
29.939546
-1.0824876
1.0232432
26.417343
-0.55394236
-0.037500995
18.093742
0.18757918
-1.7083679
22.329818
0.16101937
30.054111
-1.3006675
0.13417346
0.11790762
30.80087
-0.97800049
0.06782397
17.514179
-0.39479207
-0.0022762811
18.69458
-0.62885112
-0.068810962
18.696314
-17.979535
-0.62989309
-17.034192
17.519095
-0.13049654
-0.39381501
-16.299419
-1.2093704
0.10738651
0.17135552
0.44514779
-0.21762668
-0.042844945
-0.23799931
31.853042
-1.4618622
0.20860093
20.865323
0.25385242
0.63980542
17.235228
-0.033090261
0.021348488
26.791418
-1.3821293
0.075504385
29.009338
-1.2216821
0.10127919
29.011311
-1.2158558
-0.57385341
26.790658
-1.3702096
-0.14618539
17.244364
-0.02359733
0.28027097
20.909697
0.23241636
-0.33159731
31.994466
-1.4767186
-0.14539932
16.416515
-0.047628374
0.23857861
17.792144
0.21735828
0.43198174
0.23557942
17.880462
1.023382
-0.20274624
16.488839
3.9921033
30.132959
-2.7535112
-14.049984
19.395627
0.24152998
-1.7542586
-12.006528
11.417675
14.23424
9.7700025
6.8442343
22.947998
6.3555422
0.36952388
2.5508588
-2.5133447
23.605623
1.3139663
27.844842
-2.5657748
-0.11445322
30.972117
-3.452743
0.54914651
23.851329
-1.984544
-14.318023
-1.1403539
16.038284
4.6187869
2.7623139
2.3500501
-0.090569014
1.9737117
-0.26118266
2.5555377
-4.599497
15.34202
-2.1492775
-3.1647532
-3.5387723
3.9643845
0.58986345
-4.217391
6.8410262
0.69345453
-6.481843
-7.879351
0.12318777
4.6591433
3.4721923
8.2521735
-0.55845123
25.33871
-4.9195381
-4.4530017
47.748683
-6.0122031
1.3456214
44.712756
1.3517575
-7.006487
2.043984
42.441304
-6.3443695
2.2942669
43.088301
-4.6070638
2.4686705
44.2668
2.598177
45.182188
-2.1791884
4.5226179
4.3535991
44.233075
0.2052042
4.6670014
44.661545
2.4985899
4.6178319
44.492627
4.4135226
4.3580478
43.712947
5.5883826
3.8424925
42.309578
3.0354686
40.327462
-4.866691
39.542527
-3.9006898
4.8214444
41.122598
-2.2122817
5.5456614
42.317515
-0.17353648
5.899931
42.962958
1.9375996
5.9329262
43.070065
3.8256572
5.6582892
42.624977
-4.195603
5.0510191
5.0737804
41.578933
5.910514
43.232049
6.3736843
3.8223152
41.821371
5.1573242
3.9919398
40.572054
7.1532315
40.921409
-3.4792981
5.928574
38.371826
-5.0759688
3.8983732
38.096534
4.2602814
40.064227
-3.822181
3.6341886
3.5696122
38.137903
-3.0131543
4.8144584
39.705778
-1.5208632
5.6626149
40.495455
0.1326006
6.0568678
40.807578
1.7351619
6.04446
40.749063
3.0866033
5.6165841
40.344175
4.7011617
39.553215
-1.9837208
3.4801632
37.541225
-1.0096117
4.3961279
38.056152
-0.083345398
4.9210967
37.817648
0.87291158
4.9181121
37.846706
1.9392436
4.3952981
38.129379
2.6439058
3.4935396
37.598383
0.37085046
1.2608005
38.878196
-0.73683031
0.65403666
31.00708
0.36298345
1.0422432
38.42298
-0.80318324
31.578199
-0.67669524
5.7563194
7.4432518
2.5916691
0.44729359
4.4042891
0.10379173
-0.34028834
3.0637451
-2.235658
-0.27719629
2.4138998
3.9679549
-0.16292453
4.8016433
-0.94796017
6.0493464
-2.1482702
16.328635
0.038888988
0.27723653
-2.7248983
21.510471
-2.7730639
-0.47444544
-0.24798791
17.02461
1.3148204
29.852339
-1.6408557
0.16064871
21.762687
-1.3287518
-16.008046
-0.40227945
17.345705
-1.0624173
-1.7492946
-3.1753845
20.110147
-6.2040756
-3.4265913
-4.0464064
3.892165
0.40544821
-2.3610709
0.92451334
6.9939272
-8.983961
0.43675708
2.5241367
4.2681626
5.2922093
0.37944442
-2.2230037
-2.5397106
18.718012
1.1365952
27.341709
-1.4563543
-8.2232137
-0.080724395
-1.2103855
25.271442
-1.2539415
29.12335
-1.3269179
1.7478467
29.470821
-1.4952029
0.9925861
25.610798
-0.9665398
-0.040682013
17.360116
-0.3856312
21.753468
-0.56876645
-0.35674094
0.03211799
22.832983
-0.75177518
0.0044550356
30.725292
-1.2884732
0.011047175
17.535843
-0.4752574
-0.0006083479
18.753234
-0.65878397
-0.011827807
18.753617
-0.6591313
-0.005629632
17.536006
-0.47493296
0.35516279
30.725555
-1.2881043
0.031053408
22.833208
-0.75178852
-0.34785091
18.468455
-0.69325375
-0.34612114
26.819449
-1.1639357
0.18339046
30.325822
-1.347951
0.47203816
30.295119
-1.4116852
0.25551594
26.789567
-1.2337751
-0.13287874
18.470121
-0.69436449
-0.59779988
22.842302
-0.61866677
-0.24869208
30.71421
-1.2020868
-0.19168459
17.513044
-0.50977352
-0.24299888
18.747618
-0.56495847
-0.17709972
18.749538
-0.69492014
-0.22762276
17.573803
-0.3588552
0.064540282
30.88503
-0.95428396
0.0020198687
23.044235
-0.60038416
-0.17447097
18.668994
-0.41483256
-0.12937552
27.040001
-0.62721144
0.019980946
30.491141
-0.64775403
0.15607456
30.484037
-0.64710361
0.18595338
27.011648
-0.62745684
-0.0099670673
18.633062
-0.41823111
22.99038
-0.59186997
-0.042391386
0.014012832
23.236644
-0.21785054
0.020919927
31.091381
-0.35062093
0.0033550451
17.685874
-0.15317899
-0.0012794451
18.911024
-0.21227397
-0.0043161522
18.911709
-0.21280026
-0.01854983
17.687175
-0.1527641
-30.814444
31.095474
-0.35030636
0.054326661
-30.082673
-0.97684559
0.13537218
1.7289552
-1.2975361
0.063588703
0.17509816
22.356116
-0.97507713
18.115126
0.18530185
-0.054708489
26.472829
-0.55438684
0.061063244
29.991433
-1.0810318
0.16698737
29.955162
-1.0775569
1.0553992
26.450548
-0.54380155
-0.0048948894
18.130593
0.20059399
-1.6340333
22.393851
0.14456537
1.3303468
30.178135
-1.2793575
0.23314091
17.125421
0.2017449
0.28740473
18.094019
-0.41326518
18.105446
0.19028388
-0.24210995
18.748747
-0.56473124
0.2467278
17.515043
-0.50811847
0.59568791
30.717729
-1.199495
0.13190509
22.844522
-0.61856603
-0.25666081
18.471278
-0.69354435
-0.47322971
26.790397
-1.2330459
-0.18444732
30.295396
-1.4108108
0.34512645
30.325778
-1.3474603
0.34657362
26.819222
-1.1647189
18.4682
-0.69450833
-0.0092690819
-0.095865267
18.802896
-0.22706347
-0.11691359
23.205338
-0.2627563
-0.040452515
31.087794
-0.43536451
-0.026561262
17.70401
-0.18073903
-0.00063041625
18.944506
-0.21616387
0.025934238
18.944559
-0.21645219
0.039630353
17.704116
-0.18048427
0.11591754
31.087965
-0.4350958
0.0086871084
23.205453
-0.26304546
-0.096507605
18.803042
-0.22687554
-0.099253402
27.219699
-0.39472903
0.019545922
30.673988
-0.46059754
0.10861986
30.683491
-0.46828762
0.059684482
27.241305
-0.3983275
-0.065963599
18.818666
-0.22279194
-0.25188291
23.213821
-0.18673401
-0.17588242
31.065655
-0.42414125
-0.13357326
17.679638
-0.20766719
-0.14782252
18.929684
-0.16647347
-0.07691153
18.929617
-0.25002864
-0.087625913
17.713376
-0.12673826
-0.0022298844
31.135292
-0.33165877
0.0020720013
23.267598
-0.22646846
-0.033741267
18.858509
-0.1516417
-0.028444466
27.275352
-0.23466913
0.0066699106
30.703008
-0.23972242
0.037993543
30.695322
-0.23904782
0.032187138
27.255183
-0.23512755
18.836655
-0.15549552
-0.025926307
0.018235554
18.879573
-0.03653055
-0.044356654
23.287725
-0.033477449
-0.018092563
31.143661
-0.078376336
-0.0094670868
17.711655
-0.034385711
-0.0014558218
18.942299
-0.039383208
0.0079796793
18.94214
-0.039940273
0.018206396
17.710993
-0.033942767
0.049580444
31.142547
-0.078108186
0.032841724
23.287952
-23.242349
-0.029501721
-18.839662
18.878731
0.031505422
-0.038130938
-18.64461
-0.0061285608
-0.028234873
-0.15926508
-0.14625
-0.42341129
-0.03106143
-0.10211027
27.019194
-0.63291308
0.0480649
30.48448
-0.64906673
0.18604989
30.494337
-0.64399405
0.21811713
27.036069
-0.61985827
0.022823971
18.659608
-0.40796488
-0.040380782
23.031052
-0.61239559
0.23609539
30.874115
-0.95160615
0.17905301
17.570222
-0.35760838
18.748256
-0.69431755
0.14705613
-0.078135261
18.930258
-0.25003863
0.13242677
18.93123
-0.16654161
0.17429167
17.681221
-0.20681026
0.25020573
31.068013
-0.42289346
0.065304768
23.215205
-0.18690116
-0.060292808
18.819449
-0.22245019
-0.10919924
27.24191
-0.39809969
-0.020134818
30.683729
-0.46821379
0.098632115
30.673977
-0.46060442
27.219561
-0.39483327
0.014126968
-0.032684573
27.317305
-0.080725629
-0.017338225
18.879646
-0.04720511
-0.060121193
23.291688
-0.045274763
-0.038210462
31.159937
-0.094103134
-0.020184667
17.727098
-0.040903154
-0.00035953217
18.963324
-0.038230354
0.019776969
18.96326
-0.03841873
0.037714501
17.727131
-0.040743794
0.059559863
31.160018
-0.093952321
0.017022661
23.291728
-0.045445191
-0.014469295
18.879707
-0.047096289
-0.033018401
27.317365
-0.080655833
-0.025129913
30.759263
-0.093719711
-0.013472817
30.765037
-0.093047839
-0.024152609
27.3299
-0.078685783
-0.047315873
18.887914
-0.047716877
-0.11495665
23.293653
-0.014590027
-0.093665411
31.139271
-0.095045414
-0.066681571
17.707695
-0.055057149
-0.069911161
18.948213
-0.014957803
-0.030165233
18.948536
-0.058305884
-0.022170948
17.725289
-0.019435509
0.011237769
31.169623
-0.067349089
0.012391115
23.308436
-0.04220345
0.007603016
18.895885
-0.032448733
0.0026830931
27.3321
-0.051255031
-0.0028160608
30.762432
-0.054181401
-0.0096910674
30.755272
-0.05499978
27.315201
-0.053860509
-0.02977353
0.02237088
27.346431
-0.026691258
-0.029488372
18.897749
-0.020234585
-0.046421965
23.305408
-0.0020801474
-0.024524736
31.154059
-0.032714686
-0.011057251
17.713903
-0.01626196
-0.0015665053
18.94332
-0.010988886
0.0090782933
18.942801
-0.011777243
0.022688361
17.712507
-0.015642158
0.046201459
31.150928
-0.032256064
0.030871334
23.303236
-0.0011541326
0.033447164
18.895478
-0.020451589
-27.313783
27.343943
0.028354833
-0.026601214
-27.257202
0.029124388
-0.054943917
8.9643275e-05
-0.23965178
0.036198213
30.694609
-0.24126849
0.06790639
30.702405
-0.23724364
0.062050202
27.275194
-0.22943393
0.014436938
18.856708
-0.14695591
0.018392473
23.263178
-0.23520802
0.093316395
31.133183
-0.33040041
17.71338
-0.1259995
0.030278407
-0.024495363
17.727211
-0.019221476
0.068832916
18.950319
-0.058292002
0.065649133
18.949974
-0.015228909
0.0923786
17.709075
-0.05459057
0.11373959
31.141025
-0.094499665
0.046829953
23.29455
-0.014809565
0.02375653
18.888415
-0.047517998
0.013152971
27.33029
-0.078545074
0.024823634
30.765201
-0.092988695
30.759286
-0.093724543
0.01250511
-0.027559981
30.800883
-0.028553036
-0.006010884
27.359995
-0.026223051
-0.018965699
18.909234
-0.018502331
-0.041699076
23.321345
-0.0086570195
-0.02671033
31.178377
-0.034097044
-0.012745993
17.729739
-0.017167596
-0.00016386705
18.961292
-0.010927457
0.012518996
18.961235
-0.011034523
0.026432534
17.729736
-0.017079417
0.041407164
31.178395
-0.034021216
0.01880411
23.321364
-0.0087588994
0.0058386225
18.909261
-0.018455846
-0.0126636
27.360012
-0.026195359
-0.027721915
30.800862
-0.028554631
-0.035298232
30.798808
-0.0276371
-0.037594062
27.355605
-0.024853539
-0.036094875
18.904332
-0.019239725
-0.062695602
23.311862
0.0067427332
-0.04512274
31.154488
-0.033369381
-0.028929545
17.712878
-0.022055802
-0.026446423
18.946757
-0.0015169193
-0.0075301401
18.948636
-0.019476002
0.0019607574
17.724305
-0.0089957588
0.022294258
31.175954
-0.02714007
0.016034345
23.324011
-0.010336995
0.014328618
18.913432
-0.016547875
0.0058702369
27.364117
-0.02412917
-0.0084707234
30.800856
-0.026926954
30.792896
-0.027780807
-0.022197686
0.010504217
30.835495
-0.034498403
-0.026996854
27.380888
-0.032428817
-0.026312638
18.919215
-0.024074096
-0.040893042
23.326139
-0.0078418739
-0.020114854
31.17045
-0.038094569
-0.0093346721
17.722168
-0.020099381
-0.0015536241
18.950039
-0.015473457
0.007214353
18.949445
-0.016387692
0.017273949
17.720781
-0.019388364
0.037604398
31.167187
-0.037531055
0.024556279
23.323439
-0.0087872273
0.025141609
18.916875
-0.02360997
0.020456434
27.378604
-0.031927741
-30.791345
30.83477
0.0089234041
-0.034041531
-30.75291
0.015583665
-0.027422963
0.025080473
-0.055267054
0.017515161
30.762215
-0.053714698
0.0069008668
27.334478
-0.049857818
-0.0041604494
18.897429
-0.030426646
-0.0034857679
23.309034
-0.046901828
31.172329
-0.066915024
-0.002314787
0.021003758
31.180312
-0.027199758
0.0067641309
17.726784
-0.00916123
0.025071481
18.950719
-0.019167165
0.028005202
18.948412
-0.001854898
0.044091474
17.714023
-0.021708047
0.061806826
31.155793
-0.033063638
0.03574375
23.31244
0.006539285
0.037321386
18.904644
-0.019119306
0.035104338
27.355842
-0.024773735
30.798908
-0.027603811
0.018533022
-0.027545354
30.837839
-0.03192883
0.0042101613
30.845209
-0.032383034
-0.0085045812
27.400457
-0.029982562
-0.016183157
18.936451
-0.02151182
-0.03105796
23.348076
-0.013698913
-0.016439879
31.200397
-0.037775804
-0.0079571131
17.739894
-0.019776876
-8.7250226e-05
18.968656
-0.016251057
0.0078402577
18.968594
-0.016303949
0.016287232
17.73988
-0.019731198
0.030899207
31.200384
-0.037741437
0.016098876
23.348071
-0.013752869
0.0084171761
18.936455
-0.021486986
-0.0042953761
27.400458
-0.029969698
-0.018623562
30.845193
-0.032382999
-0.027667177
30.837782
-0.031943965
-0.02866329
27.384143
-0.029384139
-0.025654968
18.921661
-0.021914704
-0.039243966
23.3289
-0.0051237608
-0.021511944
31.171536
-0.035823209
-0.012380273
17.723184
-0.020612215
-0.0082240815
18.954329
-0.012800422
0.0009150432
18.957542
-0.019111797
0.0072149973
17.733578
-0.016707714
0.023031881
31.194326
-0.035282124
0.014190206
23.346376
-0.015106487
0.010613381
18.936538
-0.020997545
0.0025352274
27.401064
-0.030294728
30.84487
-0.033796988
-0.0099241818
0.00044607808
30.883996
-0.032380138
-0.017922896
30.87382
-0.032869635
-0.020450598
27.411817
-0.030806406
-0.020026426
18.939176
-0.022542988
-0.030928743
23.345413
-0.010486887
-0.014070065
31.188136
-0.036096393
-0.0067972108
17.732475
-0.019239409
-0.0013424556
18.959102
-0.016095147
0.0048798605
18.958588
-0.016947352
0.011148685
17.731403
-0.018562446
0.026725547
31.185566
-0.035546913
0.017120384
23.343094
-0.012147947
0.016396063
18.937287
-0.021865324
0.012999811
27.409888
-0.03030339
0.0047338605
30.873072
-0.032606735
-30.846056
30.884875
-0.0043378905
-0.032388755
-30.801817
-0.0039844832
-0.033614346
0.00060462753
-0.026615885
-0.0099583224
27.367163
-0.023828984
-0.01390207
18.916112
-0.016076218
23.326712
-0.011712181
-0.025396809
0.015510888
23.349404
-0.014438717
-0.0090535173
31.198455
-0.035563886
-0.0021125288
17.735784
-0.017067201
0.0067668654
18.959377
-0.018594204
0.011595532
18.95564
-0.013122217
0.020723555
17.724045
-0.020310218
0.038619771
31.172458
-0.035591105
0.025413779
23.329262
-0.0052787763
0.028479912
18.921845
-0.021841624
27.38428
-0.029341193
0.016672251
-0.017648651
27.412018
-0.029103303
0.0098858174
30.873836
-0.031712204
0.00023464978
30.884059
-0.031889764
-0.0071699016
27.434664
-0.029352001
-0.012047312
18.959682
-0.020695484
-0.022012203
23.371066
-0.015220845
-0.0097616025
31.222166
-0.035736648
-0.0049563359
17.75207
-0.018726796
-4.9714832e-05
18.979103
-0.016993518
0.0048882993
18.979041
-0.017025999
0.0096882759
17.752034
-0.018700747
0.021937309
31.22213
-0.035712049
0.012008679
23.37105
-0.015245809
0.0071273371
18.959675
-0.020683914
-0.00027726948
27.434662
-0.029346466
-0.0099364177
30.884055
-0.031892268
-0.016745715
30.873809
-0.031718473
-0.017763549
27.411946
-0.029127295
-0.016724513
18.939377
-0.020884007
-0.02514099
23.346034
-0.010798274
-0.010804232
31.189685
-0.034133201
-0.0057690786
17.73487
-0.018471032
-0.0021532916
18.964838
-0.015795596
0.0026486036
18.968845
-0.01777697
0.0061684125
17.745841
-0.017542583
0.01777079
31.215546
-0.034546205
0.010058561
23.368359
-0.016390745
0.0058705931
18.958601
-0.020153873
27.434065
-0.029222615
-0.0019360225
-0.0023257904
27.457912
-0.022630046
-0.0079241075
30.9118
-0.024995417
-0.012619972
30.900809
-0.025338429
-0.013634918
27.433679
-0.02376911
-0.013461705
18.953561
-0.017315595
-0.020700328
23.359094
-0.0090871873
-0.0087547217
31.201513
-0.02756436
-0.0044003417
17.740615
-0.01481578
-0.0010314858
18.966321
-0.012813682
0.0028989993
18.965928
-0.013503136
0.0063254225
17.739904
-0.01426677
0.01691236
31.199783
-0.027091904
0.010639706
23.357439
-0.010718709
0.0095048776
18.952295
-0.01667326
0.0074221957
27.432356
-0.023349024
0.0023303272
30.900268
-0.025197298
-0.0032020556
30.912374
-0.025093442
-27.43612
27.459282
-0.0063502226
-0.023006411
-27.403653
-0.0097114104
-0.029563657
-0.01207128
-0.030457239
18.939098
-0.021297151
-0.01272624
18.960596
-0.020733323
-0.021426999
23.370866
-0.014885912
-0.0084168367
31.218669
-0.034903351
-0.0038832637
17.747463
-0.01795035
0.00085976161
18.970208
-0.017226159
0.0051539963
18.965759
-0.01606851
0.010232276
17.735457
-0.018231282
0.024723495
31.190284
-0.033961972
0.016572598
23.346247
-0.010904085
18.939483
-0.020837221
0.0096855905
-0.0099767184
18.953233
-0.016240054
0.008794857
27.432996
-0.023015165
0.0044913737
30.900173
-0.025094957
-0.0011344924
30.91171
-0.025171643
-0.0049984296
27.458631
-0.023129042
-0.0080642734
18.976074
-0.016209264
-0.014422823
23.387166
-0.012442001
-0.0055221515
31.238246
-0.027343753
-0.0029637098
17.761536
-0.014419492
-2.8543701e-05
18.987435
-0.013551794
0.0029330021
18.987361
-0.013566323
0.005484142
17.761499
-0.014410925
0.014385066
31.238205
-0.027339237
0.0080443539
23.387148
-0.012454589
0.0049795385
18.976067
-0.016206921
0.0011142602
27.458628
-0.023128871
-0.0045172646
30.911707
-0.025170458
-0.0088350983
30.900159
-0.025098697
-0.0097514128
27.432957
-0.023028973
-0.010068843
18.953178
-0.016267123
-0.015482204
23.359215
-0.010405293
-0.0055520128
31.20383
-0.026406336
-0.0029564605
17.743977
-0.014093714
-0.00054815256
18.973263
-0.013123207
0.0020644798
18.977685
-0.013749491
0.0036893207
17.755676
-0.013863369
0.011391949
31.23208
-0.026620764
0.0059916463
23.384561
-0.013481718
18.974935
-0.015563361
0.00020939438
-0.0030661963
18.985181
-0.010916902
-0.0022964084
27.472691
-0.015896935
-0.0055439567
30.928846
-0.01754415
-0.0078531239
30.917241
-0.017780405
-0.0080181107
27.446981
-0.016685834
-0.0081459398
18.962384
-0.01212609
-0.012529754
23.367237
-0.0069967997
-0.0047608978
31.209759
-0.018954325
-0.0025461612
17.745739
-0.010329172
-0.00070734761
18.970821
-0.0092139237
0.001502261
18.970539
-0.0097013905
0.0030245713
17.74531
-0.0099301513
0.0097070757
31.208741
-0.018609274
0.0059730266
23.366195
-0.0082614134
0.0047774742
18.961643
-0.011616989
0.0037174548
27.446204
-0.016360461
0.0010620294
30.916917
-0.017684097
-0.0018148506
30.929174
-0.017634079
-0.0034018865
27.473485
-0.016208418
-18.976252
18.98594
-0.0051763528
-0.011403931
-0.0086834355
-0.016163402
-0.01486029
23.386313
-0.011941467
-0.0056924442
31.234119
-0.026955379
-0.0030963661
17.756714
-0.014226957
-0.00045912695
18.978576
-0.013282622
0.0025168501
18.973833
-0.013326333
0.0051679937
17.744342
-0.013914608
0.015219601
31.20419
-0.026282035
23.359331
-0.010475989
0.0055583484
-0.0087969476
23.367665
-0.0083346163
0.0046692146
18.962177
-0.011520556
0.0040938982
27.446415
-0.016413826
0.0017832398
30.916697
-0.017899703
-0.0010692566
30.928777
-0.017937732
-0.0028582421
27.473288
-0.016479906
-0.0048776665
18.986118
-0.011535665
-0.0086847821
23.396824
-0.0091287395
-0.0027327323
31.248149
-0.018871858
-0.0016236112
17.767477
-0.010089391
-1.3418806e-05
18.992638
-0.0097301072
0.0016064617
18.992562
-0.0097353605
0.0027175892
17.767432
-0.010081894
0.0086738948
31.248102
-0.018868177
0.00487381
23.396805
-0.0091342038
0.0028519613
18.986111
-0.011538064
0.0010617247
27.473283
-0.016479404
-0.001794055
30.928774
-0.017936447
-0.0041129063
30.916695
-0.017904139
-0.0047031469
27.4464
-0.016423261
-0.0056066071
18.962149
-0.011534971
-0.0089517061
23.367611
-0.0082968653
-0.0026076594
31.2129
-0.018411566
-0.0015315219
17.749761
-0.0098923953
-0.00022060171
18.978587
-0.0095526255
0.0011269662
18.983228
-0.0098125626
0.0015415122
17.761969
-0.0097556073
0.0063664727
31.242579
-0.018360449
23.394565
-0.0099723233
0.0013602567
-0.0032391607
23.399937
-0.0073100266
-0.00079410593
18.990793
-0.0075690242
-0.0020374495
27.480754
-0.010995674
-0.0034427969
30.938091
-0.012134114
-0.004256152
30.9261
-0.012288577
-0.0040289985
27.454123
-0.011502856
-0.0044817511
18.967113
-0.0083314463
-0.0069682959
23.371411
-0.0054836603
-0.0020893582
31.214129
-0.01278115
-0.0012898238
17.748465
-0.0070906217
-0.00043038877
18.973192
-0.0066662031
0.00064776417
18.972992
-0.006971367
0.00099207773
17.74823
-0.0068366839
0.0051572126
31.213573
-0.012548529
0.0030560532
23.370813
-0.0063117974
0.0018856558
18.96673
-0.0079885142
0.0015013969
27.45372
-0.011279426
0.00044721651
30.925928
-0.012218241
-0.00070906964
30.938259
-0.012198714
-0.0013311428
27.481164
-0.011214797
-0.0027551434
18.99118
-0.0079024638
-23.395643
23.40054
-0.0049556792
-0.0065054776
-0.0090114086
-0.0087552091
-0.0030228764
31.243755
-0.018617932
-0.0018639133
17.762558
-0.010026093
-0.00046879248
18.98375
-0.0094758176
0.0012443767
18.978904
-0.0096916911
0.0023685959
17.749965
-0.0097727256
31.213102
-0.018333363
0.0047706534
-0.00071299338
31.217978
-0.012500428
0.0028534131
23.372201
-0.0064222686
0.0017726605
18.967186
-0.0080093946
0.0015550704
27.4539
-0.011421147
0.00062444464
30.925821
-0.012463498
-0.00050659215
30.938106
-0.012478538
-0.0011690671
27.481239
-0.011460027
-0.0026667227
18.991554
-0.0080410019
-0.0048301689
23.40188
-0.00671358
-0.00094172033
31.253437
-0.012756893
-0.00075856421
17.770656
-0.006962189
-8.4646239e-06
18.995402
-0.0069817994
0.00075580838
18.995314
-0.0069826487
0.00093890202
17.770611
-0.0069616915
0.0048298032
31.253386
-0.01275881
0.0026642602
23.40186
-0.006713671
0.0011701978
18.991545
-0.0080412792
0.00050775174
27.48124
-0.011465955
-0.00062587956
30.938109
-0.012484149
-0.0015617447
30.925826
-0.012465394
-0.0017874769
27.453899
-0.01142606
-0.0028793422
18.967183
-0.0080205162
-0.0048523792
23.372182
-0.0064010141
-0.00084966706
31.217877
-0.012550616
-0.00071728009
17.752906
-0.0068697669
-0.00015620745
18.98145
-0.0068886747
0.00044212168
18.986204
-0.0070451364
0.0001560107
17.7654
-0.0067477909
31.248306
-0.012404481
0.0016059862
0.00055981403
31.250934
-0.0087339545
0.0005378905
23.402374
-0.0055514582
-0.0011074902
18.993416
-0.0054669084
-0.0015518956
27.484531
-0.0078531111
-0.0018760268
30.942402
-0.0086175022
-0.0018767698
30.93021
-0.0087061047
-0.0015184834
27.457411
-0.0081404116
-0.0022356907
18.969269
-0.0058939921
-0.0036262384