/*--------------------------------*- C++ -*----------------------------------*\
  =========                 |
  \\      /  F ield         | OpenFOAM: The Open Source CFD Toolbox
   \\    /   O peration     | Website:  https://openfoam.org
    \\  /    A nd           | Version:  7
     \\/     M anipulation  |
\*---------------------------------------------------------------------------*/
FoamFile
{
    version     2.0;
    format      ascii;
    class       volScalarField;
    location    "280";
    object      alphat;
}
// * * * * * * * * * * * * * * * * * * * * * * * * * * * * * * * * * * * * * //

dimensions      [1 -1 -1 0 0 0 0];

internalField   nonuniform List<scalar> 
25278
(
7.9196407
7.807583
7.84183
7.8418102
7.7160564
7.8075839
7.897115
7.9196221
7.8971514
7.8059813
7.86364
7.8929312
7.8535325
7.8136612
7.1017062
7.8417344
7.8075275
7.2531003
6.7957919
7.3332649
7.6129489
7.7010489
7.7721505
7.8166407
7.6869053
7.8166059
7.7721423
7.6258978
7.5602249
7.5994051
7.4969839
7.4531587
7.1208637
7.3477212
7.3829692
7.3381701
7.3724166
7.2887721
7.2542635
7.0112793
7.157247
7.1939273
7.0650957
7.1048687
7.3284322
7.5475635
7.7507673
7.6663667
7.4534623
7.3934928
7.31559
7.2505793
6.6366682
6.8574712
7.1641646
7.2057837
7.117376
7.0729354
6.7064618
6.8614706
6.9198907
6.7792059
6.6597548
7.0524183
7.0002615
6.9576385
7.0109578
6.5901363
6.501518
6.5782421
6.0285939
6.2506784
6.4940917
6.725911
6.9419395
7.093202
7.3835975
7.5997355
7.7012627
7.6371521
7.5809571
7.1067174
7.2564484
6.8145373
7.5204823
7.4535363
6.566423
5.6461981
6.2248998
6.7873242
6.8320718
6.2477959
6.210907
5.1456017
5.2476289
6.2612033
6.3970219
6.9278239
6.9533933
6.418366
6.3839561
5.3725135
5.5049486
6.4295462
5.833747
5.8189891
5.6768466
4.1010248
4.0188882
3.1075226
5.1288986
5.1105603
3.0817124
3.0721221
4.2040987
4.3195546
3.0647453
5.2278545
5.2590435
5.2547161
6.8119307
7.5202279
7.7159271
6.1948873
5.1226186
4.0041609
3.0990757
5.1235277
6.5632449
7.45318
7.5806841
7.6370856
7.2542954
7.1025
6.2140473
5.6366533
5.6670739
5.1040598
3.0714788
4.0830371
4.1843176
3.0595613
3.0494963
5.2206586
5.8229768
5.8089554
6.3876725
6.2496005
5.2234474
6.2308869
7.0947397
6.7796892
6.8251173
6.9223842
7.2484587
6.9484563
6.4208228
5.4826728
4.2970555
2.561514
1.1638292
1.1711996
2.5824741
4.2618054
5.792983
5.7814612
5.1934109
5.1544829
2.9345451
2.9573939
4.1507445
2.5251489
1.207707
1.103989
0.39905247
0.44427118
1.2728784
1.2664502
0.4580441
0.41273056
1.1043524
1.2044413
2.5073599
4.1073114
5.3474994
6.3695421
6.4036909
5.7590394
4.2133058
2.8476331
2.8805123
5.1275083
6.7755069
5.7474272
5.0832464
5.2790331
2.8311569
1.0086439
0.37382389
0.36029895
1.0047083
2.9300887
5.3487541
5.9579849
6.5677174
7.0415688
7.3482627
7.560592
7.4557271
7.4978389
7.3403226
7.1260436
7.1608674
7.196806
7.3734582
7.2912242
7.2580265
7.0179517
7.070314
7.1086113
7.2400461
7.444074
7.6413949
7.7508509
7.6643777
7.4653863
7.4415352
7.5687558
7.5477174
7.4059542
7.4196492
7.2591304
7.1398364
7.343082
7.3298825
7.2532454
7.4546241
7.6665269
7.6135975
7.3378605
7.3958757
7.1702185
6.8718959
6.8736703
6.9297734
7.2095458
7.1236404
7.0815872
6.7244776
6.7940955
6.6790675
7.0606551
7.3188107
7.2568388
6.659236
7.0109863
6.6019025
6.5270086
6.9680947
7.0185631
6.6096916
6.6755746
6.7394778
6.846146
6.9739491
7.0124497
7.2688194
7.1903345
7.1733258
7.1150478
7.3868277
7.4096385
7.4773766
7.2985548
7.3712826
7.3803036
7.4538553
7.3006716
7.2884149
7.166207
7.1863911
7.0667076
7.308621
7.2353278
7.2254773
6.9289467
7.0420886
6.8922688
6.9678829
7.0441889
7.1021227
7.2069325
7.4652527
7.6641584
7.6409839
7.4433476
7.4052063
7.4195567
7.3418067
7.1375679
7.2581469
7.2378169
7.0394586
7.1652943
7.06944
7.0096166
6.9858177
6.9605438
6.7917726
6.9904536
6.6930322
6.6431221
6.3310685
6.4269319
5.979458
6.3910545
6.6962868
6.9945272
6.9457978
6.5779922
6.6474781
6.3462705
6.7362567
6.8005547
6.4392991
5.9915886
5.8866068
6.3173679
5.6749117
5.8719313
5.2993454
5.4431509
5.8328112
6.0549733
6.2840438
6.4726477
6.661122
6.8185431
6.8449353
6.7402311
6.8989762
6.8725812
6.7022194
6.5201063
6.555794
6.6925259
6.7620923
6.7898831
6.7195689
6.8724222
6.887451
7.0228208
6.9420182
6.9277083
6.7676981
6.7888704
6.6121863
6.7395286
6.5595504
6.5395192
6.5048248
6.3492718
6.3002044
6.0746725
6.1201915
6.3222036
6.4612296
6.7649559
7.0410712
7.0701059
6.7918794
6.7251306
6.8769735
7.0125884
6.9898508
6.9653256
6.8249761
6.8494346
6.7488056
6.9055432
6.8801543
6.7122902
6.532824
6.667712
6.6983195
6.5128433
6.4802652
6.3162896
6.3628653
6.5667145
6.5962608
6.7745526
6.9331666
6.9456928
7.0249201
6.8908283
6.7949133
6.6197619
6.7437445
6.5649934
6.5455639
6.395554
6.4224864
6.4473482
6.5939388
6.8416858
6.8538664
7.1190749
7.0676557
7.0521884
6.9215643
6.9125148
6.814069
6.8287759
6.9756542
6.994414
7.0007911
7.0749571
6.9470874
6.9387731
6.8443396
6.8569222
6.6908059
6.8063092
6.794199
6.7789634
6.7658839
6.6404579
6.6582344
6.4670995
6.6047662
6.6266128
6.636833
6.5043019
6.4861006
6.6743957
6.5570856
6.7484498
6.9206447
6.901849
6.730941
6.7137524
6.6929693
6.8692035
6.8541812
6.8248173
6.7953382
6.5886112
6.5141309
5.9978973
6.0156819
6.112122
5.7565942
6.3714152
6.2836836
5.6303203
4.8417802
5.4057596
4.4761797
4.6689091
4.8024738
5.5125544
4.959389
4.0247042
3.8702991
2.9834488
4.2307917
5.2694732
6.0744325
5.4218187
5.9420141
6.0445762
6.1721754
5.3964388
5.1340271
4.995207
3.7425599
3.0809336
2.1184522
2.1135417
3.0498555
4.3282306
3.7985248
4.4051777
4.6302724
4.8985727
5.1653172
5.4273716
5.6626217
5.8889348
6.0908545
6.2912196
6.3293078
6.0978889
6.0592431
5.8252112
5.8835025
6.1346664
6.1727533
6.3654624
6.5098568
6.359595
6.3835644
6.1922092
6.4121092
6.3831891
6.5854472
6.451309
6.659489
6.846736
7.0077322
7.2664666
7.2493211
7.1695306
7.1874998
6.8844841
6.8345551
6.9661246
6.7848237
6.5704526
6.3415388
5.6988742
6.0813646
5.9808707
5.5682861
5.1813149
5.3105881
6.1304937
6.0012296
5.8929313
4.9021351
5.0418179
3.632779
4.178592
4.8673609
5.4704783
5.3614489
4.4115694
4.7497959
3.7714494
4.6328087
4.7642362
3.9175555
2.8618623
2.8179092
4.0900729
3.5893611
1.9431156
1.9143768
2.5595521
3.4213088
4.2521411
4.91661
5.4904747
5.9256717
6.2935557
6.6608173
7.0712729
7.3852236
7.4091295
7.4770482
7.5684503
7.4410957
7.4538382
7.3797721
7.3700804
7.1649067
7.2881426
7.3005155
7.1856781
7.0654569
7.3079364
7.2967071
7.2239922
7.2342228
6.9540546
6.9231257
7.0392645
6.8874777
6.9644314
7.0421739
7.1010305
7.1190455
7.0664949
7.0507366
6.9734307
6.8255779
6.9192191
6.9098687
6.808808
6.6348695
6.762847
6.8402793
6.8527024
6.7927204
6.9377196
6.9463422
7.0741768
6.9994561
6.9919335
6.8418362
6.8552651
6.6883155
6.8050183
6.6350547
6.6234997
6.6011932
6.7757092
6.6536488
6.4612814
6.4383504
6.5889335
6.4135171
6.5589741
6.5856995
6.4529349
6.4290947
6.2478768
6.2214002
5.9838303
6.2004661
6.1615333
6.1397035
6.0924039
5.869247
5.8084877
5.5416397
5.5986449
5.8798386
5.6083224
5.5514283
5.2303227
5.3038901
5.3562834
5.6468181
5.9122082
6.1584448
5.9537977
6.2155995
6.1754698
6.4146815
6.6273067
6.8152365
6.7197703
6.6855617
6.4645493
6.5890609
6.3772827
6.2220256
6.2684027
6.5116662
6.5476262
6.7555879
6.7741254
6.8628704
6.6845097
6.5764751
6.4664123
6.6942055
6.6721305
6.6332583
6.5947272
6.499288
6.5397705
6.2747936
6.3922552
6.3431893
6.2152876
5.898494
6.0637526
6.1126329
5.9546262
5.5794487
5.7895485
5.9900793
5.925649
6.1261619
5.8604196
5.9071135
5.6774905
5.6164158
5.2565247
5.5560406
5.6149942
5.3343787
5.3914416
5.7295615
6.0359655
6.30812
6.343705
6.4802251
6.2500786
6.0770494
5.8924543
6.2003191
6.158737
6.4318737
6.3196709
6.5841126
6.6080746
6.3574161
6.0548201
6.0065172
5.639432
5.8421533
5.4827856
5.4205663
5.3596337
5.7244285
5.4984561
5.2856509
5.7407131
6.1026417
6.4176503
6.7244875
7.1089889
7.130786
7.0938514
6.72383
6.7824463
6.8289458
7.1690274
7.1818961
7.1486399
7.1350139
6.7745452
6.8142425
6.8643635
6.6287404
6.6899697
6.7646219
6.837752
6.9181317
6.8983564
6.8137219
6.8017071
6.6030859
6.707053
6.7264014
6.6250485
6.6465694
6.7445412
6.7605911
6.9270612
6.8466958
6.6647297
6.5706048
6.7761476
6.7031485
6.4801758
6.4539481
6.5477071
6.5231648
6.7390023
6.7242465
6.6433122
6.6595795
6.42415
6.3930043
6.4964103
6.2381219
6.3743013
6.5066602
6.5303208
6.4023549
6.1484729
6.3079623
6.2800655
6.1133058
5.9373401
5.9794012
6.2714557
6.1407673
6.0984571
5.7513787
5.695743
5.4966513
5.9125734
6.2552928
6.5382227
6.5107479
6.4629902
6.3905488
6.3420874
5.998002
6.0660238
6.1620502
6.2118498
6.1200978
6.4425491
6.4720969
6.1669268
6.1017271
6.4294277
6.3977999
6.3433353
6.3175705
6.2658641
5.8869209
5.9581871
5.9934455
6.0503479
6.016818
6.3731418
6.4053011
6.0682045
5.6364433
5.6863065
5.7846096
5.7243753
5.857719
5.7991993
5.6609826
5.5966351
5.0731834
5.1643188
5.3636897
5.4305559
5.235646
5.3069141
5.1544019
5.0783196
5.6213373
5.5548607
5.5016004
5.4346321
4.8302027
4.9220221
5.0037922
4.3157646
4.5569062
4.8456696
5.1425354
5.0702784
4.5619592
4.9408381
5.015095
4.6548699
4.7263913
5.2108584
5.2774923
5.53876
5.7766749
5.9923243
5.7090391
5.9479376
5.6880295
5.9583854
6.1661017
6.3880582
6.2029278
5.9601575
5.924801
6.1435099
5.9262205
5.6554824
5.6956621
5.4017787
5.4440711
5.7249249
5.9939536
6.2039507
6.4170744
6.4332122
6.2185678
6.020142
6.2541898
6.2301924
5.9915923
5.7320817
5.765087
6.0176338
6.2151393
6.0124178
6.0409763
6.2719507
6.4821679
6.6708241
6.5515016
6.5706996
6.4512893
6.4272184
6.1791428
6.3332933
6.3567844
6.5007129
6.2936266
6.4668337
6.2592821
6.2461366
6.0477617
6.2492164
6.4551569
6.4687883
6.2606655
6.0696979
6.2970443
6.2767056
6.0457178
5.7956616
5.8231677
6.0663129
5.8194485
6.0648858
5.8532743
6.1168564
6.08918
6.0598251
6.0278353
5.8203056
5.8604783
5.5412007
5.7859025
5.7485388
5.4927783
5.4432578
5.143443
5.0795627
4.6504861
5.0279677
5.3538786
5.6631272
5.2983385
5.2426151
4.8953422
4.965414
4.5843512
4.9636332
4.8951818
4.4955261
4.0668273
4.5143821
4.579929
4.1324283
4.0569403
3.5267545
3.6153163
4.1407579
4.2096723
4.6473673
5.0218565
5.0750857
5.4022554
5.0853398
4.7080776
4.2771524
4.7164141
4.2770815
4.7980252
4.8730074
5.3425213
5.5922499
5.6441021
5.4081342
5.8036667
5.8544921
6.1788529
6.3028902
6.3317398
6.2142638
5.9009177
6.05566
6.2072344
5.9330183
5.8974062
5.585449
5.8198348
5.5294504
5.7895153
5.7582221
5.4824922
5.5188338
5.5522966
5.2586264
5.5656159
5.2936821
5.6269204
5.3829317
5.7391778
5.6927491
6.017588
5.4720451
5.5336062
5.1078539
5.0285637
5.3243242
5.2652504
5.204203
4.7841285
5.1400514
5.4473014
5.4890174
5.1931884
4.8256508
5.1710518
5.1236061
4.7662585
4.3462144
4.4174908
4.851595
4.4410969
4.9492432
4.5853068
5.1516122
5.6244496
6.0132718
6.3323421
6.5958407
6.5758892
6.5144895
6.5368452
6.2535644
6.2120253
6.2955389
5.9636405
5.8430226
5.8991054
5.4538301
5.3790533
5.5596741
5.0711704
4.9943956
4.9201354
4.6328819
4.7120228
3.9886996
4.4059362
4.3279558
4.2545091
4.1756393
4.7758389
4.4849227
3.7573919
3.8451974
3.9120024
3.5434807
4.3903692
4.4703961
4.33891
5.0739609
4.9965291
5.5691098
5.5799926
6.0215111
6.3755133
6.7254657
7.0942958
7.3854179
7.6663925
7.6129685
7.2549383
6.8018041
6.3990122
6.9303391
6.3948049
5.8035246
5.2105111
5.1754896
5.8167812
4.3056747
2.9809667
2.9951824
4.1892869
5.3857643
5.5177784
6.4274572
6.9555606
7.2562294
6.4310369
5.8293002
4.3229619
2.6182132
1.1366002
1.2374467
2.5568203
1.2924603
0.46983374
0.42466522
1.1903729
3.0598633
3.0707317
4.2094607
5.8168547
6.8118513
5.2555592
5.743292
4.0932154
2.5012203
1.2777652
0.46405491
0.4183583
1.1739629
2.5528177
1.0786678
1.1812751
2.8571966
2.8180112
4.1972093
5.7523315
6.7734711
5.1176641
5.0724012
5.2686708
2.7953966
0.98077549
0.37903134
0.38625559
1.0393561
2.9876059
5.3714017
6.6418024
7.2519921
7.3156193
7.3951106
7.3346829
6.8649249
7.0776028
7.0044853
6.9586722
7.0115675
7.0556762
6.6675087
6.5926418
6.5052297
6.5870315
6.7155577
6.7871851
7.1199218
7.2085825
7.16688
6.8690285
6.9261923
6.9719212
7.2517077
7.4539862
7.4773853
7.409102
7.135951
7.1488429
7.1825967
7.1698163
7.1318674
7.1111726
7.071298
6.6622064
6.7309661
6.787147
6.8319831
6.7754964
6.8148082
6.8662974
6.9559438
7.2346594
7.2244746
7.18857
7.171354
6.8412244
6.8888446
7.0109154
7.2679621
7.2980158
7.3085528
7.0664611
7.0415404
6.9258278
6.6511937
6.5844339
6.5217194
6.4795126
6.4527359
6.4510506
6.4736668
6.4985574
6.47642
6.1651205
6.1942699
6.1497061
6.1182252
5.7012862
5.7489914
5.8110856
5.7650898
5.2408357
5.3140618
5.232042
5.1546083
4.4282636
4.5587194
4.7970098
4.8892759
4.1789569
4.0757504
4.4905412
3.8370699
4.3547558
3.8263279
3.7494938
3.6802259
4.2026097
3.6822747
3.615594
3.5629122
3.0269366
3.0658384
2.3136123
2.9945304
2.9461011
2.2746646
1.6973921
1.6741539
2.560785
3.4865137
3.284308
4.185396
4.1245418
3.2185288
2.2771195
2.2576302
1.2704696
1.3068644
0.68574655
1.0715586
1.7093224
2.4333393
3.0699665
3.6452767
4.1122769
4.541859
4.9137073
5.2712354
5.5864061
5.6443042
5.9337323
6.1973243
6.4324069
6.6404269
6.6039184
6.4852652
6.7005783
6.7322616
6.5299924
6.5631313
6.6692116
6.4654892
6.4928603
6.2663006
6.2338481
6.0660572
6.3296882
6.2921414
6.2489641
6.3957889
6.149664
5.9628279
6.0225676
5.8386396
6.1472491
6.4169349
6.649747
6.6132257
6.3705807
6.2517548
6.5222698
6.5600437
6.305685
6.3470488
6.4536487
6.6865518
6.7660384
6.7828701
6.5891322
6.3618409
6.1027644
5.9311776
6.2269811
6.4838262
6.705799
6.8913863
6.793089
7.1344939
7.0976421
7.0762847
7.0765225
7.3864948
7.6664669
7.8074711
7.8416969
7.9194653
7.8970307
7.8137264
7.772122
7.7011011
7.6134862
7.2566928
7.3179148
6.9676023
6.6569206
6.5251076
6.6082108
7.0173607
7.0593395
7.0094699
6.5992723
6.6757759
6.7910362
7.1220993
7.3958171
7.3367249
6.8686332
7.0798842
6.7197808
6.8707215
7.1685148
7.2089674
6.9271799
6.9722855
6.8436448
6.7366886
6.6739554
6.7330069
6.7336779
6.7812417
6.8352934
7.1715666
7.1830687
6.8681218
6.9565198
6.7706231
6.8414519
6.819105
6.808705
6.6132983
6.6331455
6.6524095
6.6692273
6.7627732
6.9288515
6.8492484
6.780707
6.5767525
6.5569769
6.5348481
6.746252
6.7336195
6.5114444
6.4135148
6.6553859
6.6222491
6.6012896
6.5320334
6.4868506
6.4446974
6.1449053
6.2001256
6.1083292
6.4164106
6.372455
6.0442609
5.6677914
5.8024333
5.9483929
6.1012705
5.7766841
5.5706666
5.646004
6.0009426
6.0493274
6.1889947
5.8862404
5.7008714
5.7517579
6.0910623
6.3800061
6.2849489
6.5558166
6.4912721
6.4649768
6.1575354
6.2449537
5.9114119
5.8566967
5.4493735
5.3736222
5.1773425
5.2643489
5.7273027
5.7858656
5.8396912
5.9591725
5.5702245
5.5106067
5.3309298
5.3961044
5.250096
5.7433871
6.1353546
6.1992405
6.2408379
6.3205796
6.590617
6.6085225
6.6696736
6.4403506
6.4669394
6.697069
6.7083514
6.4892496
6.2290406
6.3416316
6.4576341
6.5739828
6.3624956
6.3409291
6.3185587
6.5367505
6.5162325
6.2935539
6.1362159
6.3894495
6.4143357
6.1657148
6.1930046
6.4358161
6.3163359
6.2894566
6.2597227
5.9705824
6.0072621
5.8449014
6.1652427
6.129567
5.7986848
5.4149067
5.6393119
5.8488482
6.0447569
6.0120002
5.9760449
5.6910127
5.7319189
5.485615
5.808947
5.7671658
5.7187174
5.3835592
5.3077414
4.9496133
5.0178664
5.325326
4.9818429
4.6287547
4.5417246
4.1499157
4.6029522
5.0217251
5.0944845
5.4848533
5.2336486
4.77122
4.6793547
4.1919452
4.2686973
4.6680659
4.2256248
3.752663
3.6589944
3.1303812
3.7449485
4.3325297
4.4150104
4.966028
4.7020959
4.0432177
3.9482275
3.2514948
3.3077188
3.8074469
3.1927909
2.5617188
2.5003615
1.9306991
2.7987369
3.6263004
3.7026271
4.4712417
5.1097575
5.6235602
6.0368719
6.3705618
6.3234822
5.9728638
5.9315248
6.2947011
6.3417771
5.9978572
6.052065
6.0886605
6.4213581
6.4491573
6.4226732
6.3934517
6.3933552
6.3403397
6.2935762
6.0409603
5.9377178
5.4142141
4.9896065
5.1263044
5.380608
6.1649233
6.0660639
5.2529757
4.205424
3.7293612
3.0617846
2.0998368
2.0899261
3.7825703
4.2984314
3.007913
2.9480947
3.8389836
4.8166344
5.6161359
6.2770249
5.986942
6.5088091
6.583115
6.3640951
5.7412988
6.1009225
6.0023455
5.3864038
4.451379
4.6405236
4.7737941
3.987911
4.9323753
5.4931288
5.6457251
5.405928
5.1395998
4.87043
4.6027342
4.3837937
4.2571769
4.2645899
4.9299631
5.0241366
5.5617582
5.5019907
5.5646321
5.0185785
5.0895594
5.179076
5.6846507
5.6276273
5.6876753
6.0983925
6.1443704
6.1787323
6.4899906
6.5297218
6.5492094
6.2757572
6.3520119
6.3830368
6.6369332
6.6508211
6.4090997
6.3408982
6.5967537
6.5815848
6.3097594
5.9851197
6.0857822
6.1975317
5.8867403
6.0407793
6.0721528
6.2177154
5.9477182
6.124593
6.1000666
6.07347
5.8030468
5.7682712
5.5300172
5.5719662
5.8840126
5.9165973
5.6108179
5.8338441
5.8627122
5.6463278
5.3167549
5.5758358
5.5419255
5.5057128
5.4668978
5.4246243
5.3783267
5.0390884
5.0906702
4.750277
5.130104
5.0760159
5.4357165
5.1559397
5.5413299
5.5912994
5.2127942
4.9074565
5.3557141
5.2967839
4.8390745
4.3403002
4.735193
4.7980159
4.3596169
4.2929597
4.6902342
4.2838962
4.6679691
4.6042795
4.1895011
3.7802425
4.2163246
4.140577
3.9839809
3.8587371
2.6900567
2.8940221
3.0123916
2.190345
3.080513
2.9573847
2.067577
1.1733344
1.7866916
1.7865038
0.74852688
0.84811732
0.4467072
0.39861929
1.18869
0.62474151
1.23104
1.912961
1.9013112
1.0728567
1.2114862
0.49183012
0.94089277
0.83787507
0.44159002
0.24713296
0.27278106
0.65469681
0.26114878
0.23697325
0.2249476
0.23269888
0.24180788
0.27775781
0.46267346
0.87764169
1.994858
3.6292404
4.9220647
5.9027148
6.0098454
6.1494552
6.0461199
5.2234916
5.3545312
5.0638051
3.6803097
4.2652355
4.1642917
2.9215551
2.9865614
1.9795133
2.3204638
3.2536999
4.1489506
4.8450456
5.444463
5.8917251
6.2691993
6.3192402
6.3524483
6.3018204
5.9409928
6.0085957
5.9620157
5.5103795
5.5802479
5.5143605
4.9579224
5.0467452
4.9380876
5.0142513
5.0917437
5.644722
6.0728347
6.4061504
6.4358002
6.4052555
6.0647792
6.1142118
6.1842065
6.4796373
6.4525356
6.4011961
6.354875
6.4316791
6.4760917
6.1840475
6.0849184
6.018172
6.1247339
5.7764837
5.6307749
5.6947025
5.8336716
5.4181852
5.2178621
5.1259316
5.3392782
5.5482256
5.9302065
6.2370524
6.5119568
6.3587097
6.2686979
5.9820363
6.5077202
6.5826467
6.1048401
5.7354931
5.6069237
6.0054976
5.3992353
4.8130178
4.4618724
3.8522831
4.0072459
4.9337953
5.506728
4.80642
4.6726211
5.3143539
5.8897621
6.3436616
6.7335519
7.0151711
7.2569649
7.4974363
7.7010739
7.7507669
7.5477595
7.5685837
7.6643118
7.6869451
7.6411867
7.5995212
7.6260688
7.5604677
7.4542009
7.12353
7.3394823
7.3836773
7.3730036
7.2901201
7.0682868
7.195766
7.1592028
6.9461972
7.0945016
6.994483
6.7979485
6.4373575
6.6968291
6.6484502
6.5757253
7.0433071
7.3480616
6.5784822
5.6863682
6.3243234
6.3956718
5.9931478
5.4556606
5.9924005
5.8885273
6.3444773
6.6494619
6.697091
6.994297
6.9454132
6.7346323
6.7985734
6.4369455
6.4804699
6.7654502
7.1663489
7.0411727
6.9644431
7.106983
7.3294263
7.3426038
7.4195719
7.4439004
7.4053339
7.2392837
7.2590728
7.138765
7.1655871
7.3707354
7.3799571
7.4538304
7.4653297
7.4407824
7.288546
7.3004996
7.1855699
6.9937242
6.9202493
6.8407598
6.7690365
6.6950465
6.6341979
6.5778266
6.5402077
6.5168626
6.5155024
6.53589
6.5723933
6.5903889
6.6442514
6.3980462
6.3666964
6.2932977
6.3280767
6.2767807
6.5553886
6.5362752
6.2503728
6.2094088
6.2372061
5.8714205
5.9530998
6.059375
6.102616
6.003913
5.6015036
5.7462187
5.6860053
5.5274145
5.3980061
5.4815016
5.9279684
5.889221
5.8276489
5.3284754
5.4173042
4.7687491
4.8836298
5.0886983
5.3137827
5.2325518
4.9868089
4.2968677
4.6850883
4.7901394
4.4272019
4.0494427
3.9042992
4.7653563
4.6569253
4.5292119
3.5581184
3.7848153
3.6879365
3.608383
3.3909842
3.3316546
4.2582609
4.2882254
4.2120202
4.3833622
4.3134158
3.5147472
3.5910579
3.3249647
3.3789289
3.4439928
4.3690172
4.5466458
5.1970759
5.7094868
5.6459316
5.1209492
5.2900193
5.7567209
6.1372164
6.2324007
6.5219478
6.5475886
6.2731388
5.9435068
5.8146872
5.3600661
5.5464937
5.4830024
5.8901016
6.0365184
6.3371432
6.594413
6.5508279
6.6440093
6.6060189
6.3620938
6.4092868
6.2926666
5.9848339
6.1378498
6.0898734
5.7640545
5.8262491
5.6251235
5.6836964
5.737721
6.0805462
6.3731691
6.6161137
6.7024004
6.6809196
6.4475528
6.4792089
6.585515
6.7795561
6.7624604
6.7273731
6.6951873
6.7920069
6.822242
6.6375734
6.5240373
6.4779182
6.599736
6.3924135
6.2420776
6.2867766
6.4280087
6.1942117
6.0160804
5.9541482
6.1456425
5.8854366
5.654255
5.4114521
5.1377316
4.8550748
4.5650355
4.6413518
4.9263181
4.3689485
3.9686928
3.870271
4.2829076
3.6962981
3.1698344
2.6771662
2.6999528
2.3099366
1.3161017
1.3443397
1.8246815
1.8248185
1.8250439
2.7410523
3.6588127
4.4619414
4.7204386
4.8008905
5.0747766
5.0008998
4.4465015
4.0459504
4.1301964
3.7368467
2.7922508
2.3373009
2.2628488
2.6014501
3.166096
3.7531608
3.1012353
3.0443036
2.3280127
3.1106873
2.5779858
2.2566843
1.2190788
1.6437106
1.6100008
2.3478767
2.3758555
3.2352185
3.3237429
3.9325284
3.2497249
3.9100936
4.0027047
4.5308079
4.9199622
5.2433904
4.8820073
5.2150642
4.8837424
5.226034
5.1830806
5.1380465
4.8059449
5.180546
5.2284598
4.8595778
4.9112536
5.272762
4.9785292
5.370452
5.7255165
5.6831935
5.3194559
5.2668608
4.97418
5.0410895
5.4700022
5.5239918
5.5744261
5.7636933
5.4175951
5.1703233
5.1058289
4.6387537
4.5609687
4.9184788
4.8588947
4.4251387
4.4907093
4.0488685
3.9681303
4.4846734
4.4111198
3.892754
3.8214129
3.2554416
3.8810587
4.4889233
5.03756
5.105989
4.5645781
4.1956503
4.8510723
4.775849
4.1158071
3.3703321
3.4416436
3.9574394
3.3238737
2.6508221
2.600823
1.9364783
2.8658797
3.7687212
4.5466146
4.6239613
3.8428994
3.5980506
4.4762332
5.1600071
5.2335268
5.3198875
5.4603962
5.6261575
6.0041677
6.0458026
5.6803855
5.5240301
5.9377052
5.8893533
5.7989094
5.8528877
6.2175389
6.5112193
6.4875871
6.4644992
6.4648722
6.7799886
7.1375643
7.137532
7.1498161
6.8174465
6.5460773
6.5630371
6.2897656
6.2554693
6.2262719
6.5237541
6.541979
6.261717
5.9106947
5.9535738
6.0275407
6.1220293
5.7820463
5.9249879
5.961882
6.1000224
6.241055
6.3814582
6.5216189
6.6593741
6.895411
7.2549247
7.5133283
7.6991695
7.7445359
7.8636326
7.9084374
7.9344831
7.9084224
7.8040207
7.856213
7.8059863
7.6992635
7.7207992
7.5312594
7.5130501
7.4772088
7.6088007
7.6257876
7.5031506
7.4847435
7.3358384
7.3281402
7.2069189
7.4060272
7.4108518
7.2229931
7.2413704
7.3595896
7.369094
7.5139716
7.4400091
7.4333592
7.3635579
7.5368833
7.7328781
7.7846682
7.578724
7.6659866
7.7566579
7.7820051
7.5995153
7.5788641
7.5368129
7.5431537
7.4021153
7.3953703
7.27506
7.4639857
7.4665288
7.2892484
7.3070054
7.4259588
7.5602554
7.687173
7.5639808
7.4349909
7.4876732
7.4871473
7.4134341
7.5992306
7.4095158
7.1893332
7.1734162
7.3945009
7.3928968
7.3695499
7.1424287
7.2564835
7.1462059
7.1974422
7.2856602
7.5310187
7.720687
7.6257126
7.608638
7.4771323
7.4850135
7.4110056
7.405727
7.2067375
7.3282192
7.3355808
7.2230332
7.2417017
7.4337064
7.5031221
7.5140474
7.4400831
7.2572756
7.3689179
7.3593065
7.1836052
7.1590721
7.1456744
7.0897081
7.0956864
7.0220857
7.0162815
6.8698281
6.9641146
6.9697068
6.8807477
6.8937313
7.0375154
7.108047
7.114285
7.0424731
6.9037727
6.9905258
6.9843402
6.8450475
6.9019955
6.8941032
6.8228345
6.8317272
6.7175938
6.7033514
6.5196478
6.6578877
6.6649345
6.5345493
6.5499825
6.7304961
6.7434611
6.8542451
6.689949
6.6818632
6.5178423
6.6430624
6.9019614
7.1593502
7.1456486
7.0902135
7.0960011
6.9704046
6.9644407
6.8709919
7.0172481
7.0222109
6.8813609
6.8938774
6.9850742
7.1081932
7.1144153
6.9909985
6.9036956
7.0422343
7.0371946
6.9675119
7.1070758
7.3404636
7.5205402
7.3350876
7.0882564
6.9821649
7.2657836
7.2692885
7.0022738
7.0224364
7.1253319
6.9883794
7.0578659
7.1281704
7.1830184
6.9400243
6.9460181
6.8898868
7.0261989
7.0115473
7.132912
7.0619228
6.9251552
6.9153651
7.0069712
6.870226
6.8544121
6.844861
6.8325658
6.8232076
6.7052853
6.718437
6.5358278
6.6657686
6.6836269
6.6908551
6.5643143
6.7430541
6.7308276
6.5500803
6.3503501
6.5179926
6.5002105
6.6221316
6.489054
6.4992408
6.3319974
6.313544
6.0895975
6.2880242
6.296815
6.109235
6.1293254
6.3488053
6.3646127
6.5630816
6.5780785
6.7559295
6.9156351
7.0577096
7.128061
7.1335091
7.0615913
6.9250311
7.011473
7.0065844
6.8700226
6.9397883
6.945994
7.1971439
7.1459526
7.1513074
7.0801981
7.0760654
6.9363005
7.0260543
7.0313135
6.9450956
6.7895387
6.8981018
6.8890642
6.877471
6.7667068
6.5896674
6.715295
6.7099308
6.5464989
6.6752307
6.692422
6.5706717
6.7318391
6.7380196
6.6139755
6.6017644
6.7775748
6.6704896
6.8473509
7.0069646
7.1423692
7.3694876
7.5367047
7.7328623
7.7845878
7.8562038
7.7565644
7.6657824
7.5366564
7.5786524
7.5427538
7.4661419
7.4639514
7.2749248
7.3954029
7.4016834
7.2887781
7.3321813
7.2221756
7.2336065
7.1809972
7.1690618
7.1650427
7.094838
7.0973455
6.9643889
7.0502927
7.0469317
6.9557047
6.8007763
6.9132058
6.9835443
6.9879369
6.9310748
7.0638769
7.0672832
7.1841186
7.112133
7.1106988
6.9741018
6.9812417
6.8297515
6.9378166
6.7816877
6.7774031
6.7614498
6.9194693
6.8103645
6.6375262
6.6261857
6.7574911
6.5971558
6.7231045
6.9836321
7.2221586
7.2341691
6.9883943
6.9313048
7.0641648
7.1809468
7.1689955
7.1650777
7.1510696
7.0315253
6.9457312
7.0801114
7.0761914
6.9359197
6.7789006
6.7667829
6.877264
6.7161453
6.710607
6.5781393
6.7554619
6.6468704
6.8261277
6.8137145
6.9725595
6.8982002
6.892585
6.8751698
6.9517021
6.945553
6.7775667
6.7898564
6.6993943
6.6847676
6.8688812
6.8009156
6.8084477
6.6115412
6.5949127
6.5113104
6.7317282
6.7398811
6.5291893
6.5475661
6.6273512
6.7132363
6.8021064
6.6202222
6.6054491
6.5901342
6.4765632
6.4939817
6.261836
6.3986582
6.4153414
6.4302188
6.6326684
6.5256175
6.7253434
6.6408935
6.8324795
6.8255615
6.7603709
6.7663612
6.5620837
6.3220498
6.4198869
6.4026258
6.5092046
6.2806175
6.2978436
6.1687661
6.1476469
6.1248435
6.383879
6.3635579
6.2558136
6.2803577
5.9931031
6.0213249
6.3012584
6.2115178
6.4758038
6.7067237
6.9196439
7.2190147
7.4578215
7.4707521
7.2446447
7.2947878
7.2983995
7.0390606
6.9587486
7.248274
7.2170742
7.2139055
7.1869535
7.1833016
7.2143042
6.8964046
6.8494728
6.8738521
6.8964232
6.9405181
6.7336401
6.785148
6.8492988
6.9147965
6.9188672
6.993095
6.8367373
6.7495059
6.7380701
6.5392556
6.5525073
6.6585658
6.4586787
6.5897069
6.6029366
6.732211
6.7386897
6.8981487
6.7892531
6.6142046
6.4201227
6.5789307
6.5705089
6.554495
6.5466467
6.527821
6.3284547
6.3210041
6.2969369
6.2888259
6.489625
6.3167273
6.3327151
6.110793
6.0913638
5.84905
6.0923558
6.1081309
5.8693992
5.8453026
5.5831412
5.6109346
5.8711807
5.8934392
6.1298691
6.3207945
6.3283767
6.5260986
6.1458442
5.9113368
6.142599
5.9120787
6.1459574
6.364734
6.380403
6.393364
6.1776557
6.3569883
6.3520519
6.1625065
5.9300852
6.1628207
6.3523789
6.3570102
6.5533966
6.393377
6.3790706
6.1632726
6.1775039
6.1928066
6.4068419
6.4197718
6.5779911
6.3836425
6.3783617
6.192553
6.379282
6.3838076
6.2060716
6.1921453
6.4064896
6.2497671
6.4714829
6.6706171
6.8478201
7.0071223
7.0118684
6.8575249
6.7712934
6.9372853
6.934232
6.7605298
6.5647677
6.5766994
6.6818699
6.4842792
6.3561775
6.3422584
6.3284197
6.3134607
6.4437611
6.2196053
6.2030279
6.1858357
6.1673728
6.1467464
5.8890208
5.9124881
5.7092468
5.9995225
5.9741226
5.6785079
5.3553282
5.6067152
5.6348916
5.3355435
5.3018026
5.2653003
4.9600878
4.6205951
5.0336396
4.7146182
4.2172723
4.1314762
4.5551972
4.1179529
4.5242774
4.4655301
4.8318617
4.7800636
4.7252112
4.3195423
4.2552272
3.8473536
3.9131355
4.3452984
3.9118678
3.8443923
3.7754895
3.7098641
3.2531789
3.6867647
3.2191199
3.2922581
3.7089467
3.1402772
2.7277539
2.6463528
2.2763195
2.8003423
2.8606226
3.3279548
2.8016635
3.2544416
3.1804785
2.7178402
2.3093366
2.3749479
1.9280591
2.3420563
2.3998809
2.7866061
3.2017706
3.7777858
3.845032
3.2660179
2.8485315
3.4257803
3.3583833
2.9261384
3.3953776
3.4621327
2.925136
3.3871797
3.3194421
2.8613568
2.4327956
2.4927035
2.9913319
2.4595217
2.0320084
1.9779069
1.4617662
1.7901663
2.1051573
2.5033385
2.462022
1.7160372
1.3462622
2.0649219
2.0286794
1.323581
0.74670096
0.71194266
1.0209873
0.61681163
0.34650805
0.38999994
0.27304389
0.60296533
1.0947725
1.7155172
1.7481151
1.11634
0.90202679
1.4246413
1.3858303
1.8587244
1.4084389
1.7714651
2.1301253
2.5867258
2.6265882
2.1716968
1.4624052
1.9100348
1.8896083
1.4346255
1.1574991
1.1798769
1.8049469
1.4477971
0.93689388
0.91078094
0.52465591
0.64915108
0.82938974
1.2374714
1.1962114
1.9337783
2.8227379
2.4843055
3.4765852
4.3271002
4.3993092
3.5320341
2.5015581
2.5277445
2.9167869
1.9454583
1.4036371
1.4344288
1.470047
1.4902206
2.4858743
3.4023148
3.3918481
3.4635979
4.3186406
5.0128681
5.5608612
5.9954516
5.928407
5.9683236
6.3205876
6.3674094
6.0319935
6.0848695
6.049466
6.0967936
6.4208871
6.4465509
6.4174608
6.4618254
6.7903081
7.1334165
7.0962786
7.1131798
7.1728224
7.4543276
7.4774511
7.4093138
7.1494798
6.8167372
6.8668147
7.1823374
7.1704757
6.8327438
6.9273278
7.225027
7.189078
6.889438
7.0109476
7.268034
7.25152
7.3295855
7.5477477
7.7506981
7.5685245
7.3709552
7.297858
7.3084404
7.2345027
6.9553818
7.0656254
7.0411244
7.1652574
7.1379366
7.3418584
7.4197137
7.4437598
7.4053917
7.372937
7.2898697
7.4971004
7.4547622
7.1234814
7.2569057
7.0150625
7.0679036
7.1952516
7.3823259
7.3389454
7.1584355
6.9440169
6.731586
6.5704928
6.3367053
6.4314583
6.7962573
6.9926051
7.0908126
6.6419263
6.6911366
6.382114
5.9774224
5.8709203
5.65401
5.2737408
5.4198771
5.9621142
5.8523862
6.3064232
6.6360384
6.5561744
7.0378712
7.3470533
7.6258566
7.5604376
7.5994721
7.6412002
7.6868243
7.664146
7.4652186
7.4410037
7.4536988
7.3797365
7.1853468
7.3004091
7.2877983
7.2581259
7.2389129
7.1061438
6.8780861
6.7918503
6.6962651
6.6089516
6.5170906
6.4397827
6.3680116
6.4115856
6.1001892
6.0362002
6.1361095
6.192249
6.4822769
6.5274696
6.5518893
6.4870134
6.1934797
6.130196
5.7349833
5.6840704
5.6236681
5.0835098
5.1544097
5.2343261
5.1645049
5.6757072
5.6143629
5.5535082
5.4978668
4.9236494
5.0109857
5.0949328
5.2449868
5.7148285
5.6545471
5.1572672
5.3547655
5.7891161
5.8438851
5.429542
5.4920582
5.3111302
5.7731771
6.1489739
6.2382453
6.2771515
5.9478479
5.8272109
5.3765016
5.5506569
5.608237
5.4412451
5.3040526
5.2269639
5.7424844
5.7450883
5.8024613
6.1842632
6.184356
6.4864803
6.508819
6.4867818
6.1747892
6.1411453
6.214073
6.2530088
6.2244506
6.5231299
6.5413183
6.2604088
6.2868451