/*--------------------------------*- C++ -*----------------------------------*\
  =========                 |
  \\      /  F ield         | OpenFOAM: The Open Source CFD Toolbox
   \\    /   O peration     | Website:  https://openfoam.org
    \\  /    A nd           | Version:  7
     \\/     M anipulation  |
\*---------------------------------------------------------------------------*/
FoamFile
{
    version     2.0;
    format      ascii;
    class       volScalarField;
    location    "280";
    object      k;
}
// * * * * * * * * * * * * * * * * * * * * * * * * * * * * * * * * * * * * * //

dimensions      [0 2 -2 0 0 0 0];

internalField   nonuniform List<scalar> 
25278
(
1047.523
990.73558
991.02797
991.02596
939.74035
990.73748
1047.1386
1047.5215
1047.1399
1035.8792
1035.4317
1035.7382
1009.5771
980.46398
933.35902
990.73814
990.63692
960.64024
961.39514
984.97231
982.24753
981.73019
980.3678
1008.8507
1009.6072
1008.8479
980.36859
983.7274
980.35603
994.22066
998.33899
983.63371
992.71663
987.01928
1001.8264
1001.5345
1008.9234
1012.7088
1004.8541
1012.9201
1007.9891
1016.1104
1021.2164
1028.4902
1018.194
1009.9841
1009.8553
1010.1325
1012.0274
1000.4271
1001.3788
985.66331
995.70964
995.63731
1006.6894
1014.9517
1016.4369
1007.877
1016.9423
1015.6051
1024.7412
1026.4272
1026.8092
1017.0061
1008.3133
1008.5872
1017.2535
1026.7565
1016.9005
1017.0383
1021.5497
1022.7461
1022.1804
1019.5085
1013.5626
1011.0274
1001.8808
994.24974
981.73328
957.94247
931.53434
933.45526
960.74307
961.84526
958.25986
931.24667
930.27564
914.70686
923.35557
928.0991
945.28757
942.24625
923.1718
907.26111
928.79173
942.43345
959.98195
959.765
978.71145
981.18961
959.72371
951.40283
975.53783
981.47327
978.54962
954.96232
935.23257
898.60676
874.73852
835.78242
904.01339
924.74234
858.71765
883.8807
924.13001
951.42658
911.08589
970.52527
946.06951
946.00631
961.78182
958.20988
939.64902
922.88286
906.98104
874.58572
835.6201
903.95782
930.21394
931.19804
931.40503
957.80588
960.6049
933.31177
923.21873
914.6275
935.16102
924.69246
858.52256
898.49111
924.0544
883.66591
910.81125
970.4556
978.47597
954.90977
959.88328
942.33133
928.57157
942.04508
933.11577
927.91891
945.13297
959.6282
960.43667
978.59501
981.39776
975.4955
951.39613
869.45525
710.54607
711.04507
869.2748
949.82554
977.61034
954.19792
944.47818
968.71051
905.37483
878.64796
922.63995
839.08686
681.52045
697.14237
429.32902
414.94673
693.7951
693.4584
420.25599
434.86162
698.28188
681.72921
839.04066
922.15679
951.27031
959.57346
981.11965
977.43972
949.50916
902.89813
876.168
943.59287
961.12556
953.91479
967.95887
992.89741
932.42749
718.53734
459.78168
454.26514
716.16655
934.86497
993.40552
999.8988
1000.022
993.55915
987.06337
980.38773
983.74323
998.42632
1001.6612
992.93039
1008.1446
1016.2512
1009.0302
1012.902
1005.0822
1013.2017
1021.4699
1028.7154
1021.803
1013.5252
1005.9722
1009.8586
1019.7137
1025.8248
1025.8674
1022.9881
1010.0439
1014.2671
1020.6859
1028.1665
1034.6149
1024.7403
1018.3588
1020.7829
1012.1518
1010.1738
982.29118
985.17363
1000.6009
1006.9935
996.10726
1016.0445
1025.1443
1015.2255
1016.8002
1008.2872
1017.5541
1026.993
1027.4842
1017.4237
1001.6002
985.92502
996.38235
1008.7621
1017.7657
1017.688
1009.0529
1017.6843
1027.4635
1035.8768
1035.8425
1035.1899
1033.06
1039.0697
1027.1671
1028.7834
1022.3781
1023.0162
1013.0781
1025.4055
1024.7366
1031.9117
1029.6605
1035.4795
1031.9823
1038.582
1032.9257
1039.5866
1044.4036
1048.4185
1037.5599
1038.8933
1033.3667
1046.0018
1043.9111
1052.6995
1049.9137
1045.4943
1040.7731
1034.8965
1025.7864
1019.6936
1005.9464
1013.478
1014.171
1020.5977
1024.5946
1034.418
1028.0476
1021.6768
1029.6415
1023.6109
1036.1545
1040.2847
1037.655
1033.5176
1030.1125
1023.0137
1030.3125
1019.4105
1024.7201
1036.9735
1039.7107
1036.0021
1030.4266
1023.1525
1013.7215
1000.2855
1019.5295
1025.1033
1019.8468
1030.4262
1037.3114
1039.9941
1025.9934
1023.6757
1000.4182
1025.6618
1021.0387
1036.9766
1051.3215
1050.4515
1048.8761
1046.3486
1042.8177
1038.8003
1043.3012
1047.8313
1041.9863
1037.5606
1043.4813
1047.5339
1052.3842
1047.6382
1038.0617
1045.0592
1050.6002
1046.0658
1049.0799
1043.3195
1047.6773
1044.6703
1051.0097
1053.722
1058.4583
1053.5746
1057.4544
1054.4077
1051.3911
1055.5528
1050.5657
1051.9838
1057.2935
1054.1955
1045.5194
1038.1624
1029.763
1036.2684
1045.1467
1050.8016
1046.2745
1040.4882
1037.8726
1033.7514
1039.0512
1043.5276
1048.165
1042.2877
1037.8736
1043.8481
1047.9179
1043.0659
1047.8584
1051.6047
1046.5913
1050.9696
1055.9066
1052.7318
1056.0697
1051.309
1044.9439
1047.9325
1043.5128
1049.2769
1054.0043
1058.74
1053.7506
1057.6232
1054.5807
1059.346
1062.0636
1064.2657
1059.4845
1049.3807
1054.26
1045.9739
1050.0703
1048.111
1053.7428
1051.2053
1056.2127
1058.3867
1052.4582
1054.2653
1056.6482
1052.571
1057.9422
1055.5807
1060.336
1062.3339
1066.7939
1062.1259
1059.9185
1058.0933
1055.6827
1060.9499
1063.0332
1066.309
1061.888
1063.589
1065.7618
1069.9457
1068.1341
1064.9285
1067.9706
1063.4553
1056.9142
1055.1718
1061.5536
1059.4619
1057.2403
1050.7356
1047.7674
1045.0387
1040.3772
1034.9264
1022.7636
1000.8272
1026.4458
1040.5665
1039.4781
1036.3759
1023.6449
1024.314
1014.6078
1022.6749
980.4477
1009.4132
1026.3974
1038.4351
1031.1449
1007.3279
988.38126
960.32738
1003.1141
1020.23
1022.7017
995.11139
1021.7815
1035.0264
1035.8809
1035.872
1032.5841
1016.5961
993.1011
940.9403
925.28215
944.54497
979.10681
1020.0039
1009.8727
1034.8182
1038.4257
1042.7045
1046.6862
1050.0775
1052.3324
1053.1053
1052.3673
1049.0729
1054.3761
1056.0226
1050.5763
1052.1911
1057.7039
1057.613
1061.1888
1057.519
1052.7121
1057.3732
1060.3844
1063.6792
1061.7876
1059.0433
1055.7511
1058.7437
1054.162
1047.3987
1038.7532
1026.9573
1020.5439
1022.0556
1028.5191
1040.8315
1034.6837
1032.6965
1039.9653
1034.373
1035.5187
1038.1895
1039.8265
1025.6641
1022.9414
1018.302
1034.0282
1034.7808
1033.8594
1020.5481
1014.3968
1030.5138
1005.5154
1016.6498
1029.2414
1037.5578
1021.7456
978.82322
1012.6176
985.57912
1008.5926
1025.5734
1004.6107
972.45284
953.89267
999.71971
988.76269
913.95606
932.58894
982.06112
1012.292
1031.5816
1041.7247
1046.3828
1046.4638
1042.3848
1035.2503
1022.9095
1012.9132
1025.2882
1024.6526
1022.942
1025.7858
1031.9137
1035.3686
1029.5288
1039.4141
1032.817
1038.4883
1044.2477
1048.187
1037.4059
1031.7301
1033.1429
1038.712
1050.0524
1045.639
1043.6283
1052.3901
1049.6786
1045.3156
1040.6664
1045.8835
1049.9115
1047.9446
1052.2377
1058.1427
1053.5735
1051.0261
1055.9415
1060.6941
1055.5276
1049.3091
1054.1981
1059.7837
1055.4355
1057.7944
1052.4184
1056.4442
1054.0498
1060.1085
1062.1216
1066.585
1061.9997
1065.6484
1063.4776
1061.7514
1057.9491
1062.7882
1066.0716
1063.9989
1059.3365
1062.3453
1057.0632
1061.4065
1066.3646
1064.6509
1067.9694
1065.929
1066.2606
1064.2973
1062.2464
1059.269
1055.9109
1057.4055
1051.8489
1050.148
1055.8719
1057.0195
1056.0628
1050.3557
1046.1091
1052.2488
1056.2607
1059.7293
1061.1371
1060.9186
1061.9811
1061.3793
1057.6947
1055.2088
1050.8372
1044.6526
1046.561
1041.7449
1047.8193
1046.1307
1049.9235
1051.1949
1056.5517
1052.6187
1056.0096
1049.3478
1052.3985
1050.4047
1056.8623
1058.7478
1059.6123
1053.4478
1050.3787
1047.5515
1042.605
1042.9564
1047.9557
1053.3985
1053.3769
1048.4206
1048.326
1050.3689
1051.1612
1056.7007
1055.9888
1055.3256
1057.2389
1058.1514
1052.5461
1052.3098
1052.4913
1058.1809
1057.2042
1051.3755
1047.2752
1050.6595
1056.4956
1053.5093
1057.6055
1061.1591
1061.9374
1060.1817
1062.9495
1061.459
1064.14
1064.7869
1064.1027
1063.2686
1060.4166
1056.8458
1056.9281
1050.8183
1053.9188
1059.746
1062.7148
1059.8124
1059.3789
1061.1585
1058.7816
1054.6808
1048.7156
1051.5052
1049.3253
1046.7789
1049.0597
1047.8183
1042.9068
1035.2341
1022.6513
1029.0978
1029.3452
1041.4823
1041.436
1046.2382
1033.6673
1039.1543
1039.3275
1033.8912
1046.2824
1050.5988
1050.5676
1060.1112
1060.009
1059.5312
1058.52
1056.6414
1054.8867
1056.8267
1054.3394
1060.987
1059.1086
1061.2251
1063.0839
1064.9657
1063.1441
1065.0469
1058.9455
1060.7901
1066.8313
1067.6868
1061.7625
1062.224
1067.8803
1066.042
1065.8498
1063.9789
1057.8684
1055.3933
1055.8716
1058.3567
1064.1747
1062.0422
1061.8849
1065.6005
1065.2353
1063.7196
1065.763
1067.2661
1069.1577
1068.4252
1066.4055
1067.1
1066.5121
1068.617
1067.6636
1067.2318
1065.113
1064.9696
1062.4468
1060.1919
1061.65
1059.3981
1053.9933
1050.8722
1047.9758
1047.7263
1042.6321
1047.07
1052.2912
1052.9402
1056.5319
1055.9178
1050.6568
1053.7992
1058.8278
1058.309
1053.6156
1050.4596
1047.5141
1047.3606
1042.2246
1046.1096
1051.3832
1051.689
1055.3615
1055.0676
1050.3307
1053.4942
1058.0332
1058.7705
1059.3357
1060.3921
1057.3055
1058.6444
1054.7421
1053.3347
1047.571
1043.9112
1050.1977
1052.8175
1056.998
1054.4884
1057.8277
1055.8736
1052.4168
1056.1867
1052.1635
1051.5351
1045.7347
1040.4699
1046.8851
1048.0297
1038.0027
1041.8908
1046.496
1050.974
1044.8106
1035.5836
1042.4297
1048.7177
1042.4213
1046.9812
1055.2664
1058.5358
1061.8751
1064.0864
1064.8196
1063.3427
1063.9877
1062.6448
1063.5235
1062.339
1060.5142
1063.9408
1064.2061
1061.3865
1059.3623
1060.5709
1059.9018
1062.7945
1059.2578
1061.7095
1064.9907
1065.6903
1064.372
1062.4617
1064.752
1066.5929
1068.4803
1068.1819
1066.1636
1066.4514
1065.123
1067.1835
1067.8094
1066.5154
1068.3129
1070.1551
1069.8161
1067.9285
1064.706
1067.6363
1069.4373
1070.8859
1069.1217
1071.0163
1070.286
1072.026
1069.753
1071.5749
1068.4113
1070.201
1068.2543
1069.5811
1068.3061
1066.4521
1068.4928
1070.259
1072.0497
1071.751
1069.9936
1070.2926
1069.0373
1070.7905
1071.414
1070.7057
1071.9212
1071.4524
1072.7479
1071.0003
1069.162
1067.1224
1066.4911
1068.5952
1065.3967
1067.7996
1065.7349
1063.1865
1060.6786
1056.3047
1053.0306
1043.5731
1051.1124
1056.5326
1060.4364
1052.4876
1046.5723
1040.6412
1046.8356
1037.0413
1045.9403
1039.7792
1030.1951
1018.6386
1032.795
1039.0264
1029.1266
1022.4211
1002.8261
1010.6761
1025.4096
1030.2151
1041.489
1050.144
1053.3169
1059.5871
1054.3417
1044.9322
1034.0519
1047.1052
1037.9756
1050.5652
1053.5835
1061.2827
1064.4078
1066.6447
1063.6801
1067.1878
1069.1821
1069.1467
1069.524
1071.2976
1070.929
1071.0318
1072.3041
1072.7552
1072.2644
1070.5096
1067.4014
1069.7028
1066.1969
1068.9583
1067.0598
1063.8457
1065.7847
1067.5884
1062.2208
1068.0231
1063.4928
1069.258
1065.6409
1070.5086
1068.6503
1070.5226
1065.8665
1067.8703
1061.0453
1058.743
1063.6315
1061.4409
1059.0486
1050.1039
1057.0264
1062.0627
1064.2528
1059.3934
1050.3857
1058.2338
1055.9534
1047.8066
1037.3592
1040.3426
1052.78
1044.5454
1056.2889
1050.2861
1060.1175
1065.2113
1066.3094
1063.892
1058.4669
1055.9712
1055.7981
1058.3061
1063.4121
1061.2066
1061.7444
1064.1155
1062.9564
1065.2216
1063.1569
1060.6506
1062.8624
1057.4579
1054.487
1050.9717
1046.5586
1050.3039
1036.4511
1043.7412
1039.8344
1034.9608
1028.1236
1040.2952
1035.4731
1019.5077
1026.9684
1032.1401
1025.2141
1042.8437
1046.7865
1044.8464
1054.827
1051.3197
1055.5895
1055.7044
1055.1315
1050.3722
1041.5135
1029.3548
1012.8961
1010.0838
982.2047
960.603
961.46751
960.0636
959.81238
959.94133
954.54571
944.76926
969.05227
977.98187
950.90979
907.20824
880.25408
923.74702
951.79459
975.78713
981.31637
978.65365
960.59102
981.42809
978.41358
951.61175
871.58377
704.4912
687.71741
841.41172
697.59041
429.80018
446.32217
714.84298
910.94463
884.15393
924.56617
955.02512
961.69189
946.05405
953.79924
921.82529
838.43346
694.73771
423.02855
437.38533
711.53101
868.78777
693.26724
677.63746
875.25934
901.80778
949.19342
977.38252
961.0888
943.44184
967.80295
992.78554
931.23361
712.5444
461.68674
473.82411
724.6148
936.92064
993.73922
995.78527
985.66979
1001.37
1000.4035
984.95618
995.72226
1007.925
1008.3606
1008.5991
1017.2586
1017.0483
1026.9227
1026.8013
1016.9723
1017.1526
1017.0715
1026.5333
1016.4585
1014.9566
1006.7041
1015.6942
1024.8127
1032.7454
1020.533
1011.9858
1024.5994
1025.2712
1033.9008
1039.3255
1039.1487
1033.6713
1029.1152
1022.6787
1022.9141
1035.2861
1035.3344
1041.5135
1046.2855
1046.3015
1050.6039
1050.5976
1050.0573
1038.6825
1033.1192
1028.5135
1022.0606
1034.7722
1040.8933
1038.7897
1026.9317
1031.6988
1037.3566
1048.1677
1043.6395
1045.6694
1055.9942
1056.1117
1055.9261
1055.7327
1055.5462
1055.5219
1055.6276
1058.1426
1058.0242
1062.6994
1062.9507
1060.7304
1060.463
1061.4326
1061.9645
1064.3014
1063.7938
1060.5579
1061.459
1058.8161
1057.839
1048.4629
1050.2602
1053.5479
1056.4823
1043.9461
1040.3283
1047.1713
1031.0256
1041.4404
1024.3432
1020.4028
1015.9655
1034.0471
1022.4821
1017.1454
1010.4234
996.0877
1003.2712
968.03119
992.04045
984.35202
958.89808
930.20997
938.22356
989.02439
1019.7905
1015.5117
1035.8645
1029.3749
1007.7248
972.4226
979.24469
911.19772
903.18589
787.98394
855.06562
911.96872
952.24315
979.44503
1001.1615
1017.3244
1030.6122
1040.1536
1047.1221
1051.2714
1057.0509
1058.7234
1058.233
1055.713
1051.3033
1046.6189
1048.4721
1042.2849
1047.074
1053.2314
1056.5683
1054.5735
1059.2066
1061.8907
1064.5858
1061.8553
1062.6684
1060.8283
1057.2436
1051.9411
1050.4645
1052.892
1053.4166
1058.9375
1058.3165
1057.6184
1054.1583
1048.178
1043.2705
1049.2369
1049.3347
1043.7502
1048.7071
1054.3336
1057.7832
1057.5595
1050.9643
1049.8204
1052.829
1059.2546
1063.54
1065.4535
1065.0047
1064.0296
1060.2561
1053.9675
1041.2731
1041.9515
1029.4077
1029.6605
1023.2943
1023.274
1013.0448
1010.1186
990.63434
990.73127
1047.1888
1047.023
980.09774
980.11284
981.58703
982.23579
985.89555
1001.5704
1009.0419
996.3486
1017.6579
1027.43
1017.6852
1017.3711
1008.7194
1017.6978
1027.4066
1026.8483
1016.7014
1000.5126
985.0877
995.99656
1008.18
1017.4215
1015.9168
1006.8761
1015.1062
1025.0052
1032.9002
1035.046
1035.7519
1035.8539
1041.9807
1042.0149
1046.7018
1046.6489
1033.9147
1039.3567
1050.9018
1050.344
1059.9009
1058.8492
1057.1909
1054.7305
1061.4491
1063.5073
1065.3479
1067.1748
1065.3312
1059.2027
1061.0909
1062.0953
1068.0843
1066.3007
1064.4849
1058.2765
1055.8633
1062.4538
1062.7322
1056.4244
1054.5381
1051.5159
1051.65
1048.815
1043.7812
1048.9508
1054.0157
1053.453
1048.6197
1043.5746
1048.3009
1049.1748
1050.4801
1051.588
1052.1442
1052.6524
1050.8461
1056.738
1057.1322
1060.8714
1061.2693
1062.1427
1060.6685
1063.6212
1063.6838
1060.5167
1060.2915
1054.6975
1054.5484
1051.4959
1056.9996
1057.5297
1059.9037
1056.0932
1054.5449
1048.6097
1046.0474
1052.2066
1054.8431
1058.7226
1061.6657
1062.7932
1061.6674
1058.5856
1056.3482
1059.5451
1057.6957
1060.659
1059.3214
1059.8193
1062.0796
1062.5346
1056.5792
1058.9875
1058.8385
1064.7693
1066.5661
1060.4207
1062.5876
1068.3303
1071.4824
1071.7646
1071.2838
1069.7389
1072.3328
1070.6218
1068.8124
1066.13
1064.1083
1066.828
1067.7193
1065.7639
1067.7549
1069.7027
1071.4972
1069.5637
1070.068
1068.2785
1066.2836
1067.3282
1069.3488
1068.1186
1067.9783
1065.9815
1066.019
1062.6106
1065.3879
1067.159
1067.5525
1065.2826
1062.4794
1060.9166
1063.8036
1061.4822
1064.8139
1061.9502
1058.0771
1054.4588
1048.3166
1041.7498
1047.8685
1052.9747
1046.2946
1038.0212
1031.253
1020.6719
1034.6534
1044.0357
1050.2403
1055.9486
1052.7238
1044.641
1037.9483
1025.3988
1031.9799
1040.7933
1027.3805
1014.1693
1006.4745
990.37213
1014.8915
1031.4013
1038.1074
1048.7941
1044.6903
1031.1222
1023.833
1002.5959
1009.7143
1021.4923
998.00565
977.9653
968.92259
945.068
990.51424
1017.416
1024.7155
1041.1108
1050.1655
1053.7293
1052.9028
1048.4346
1043.3487
1047.7379
1047.3464
1043.1625
1048.2551
1052.5551
1056.1446
1056.4836
1051.3155
1054.3967
1054.2428
1051.1653
1051.1416
1048.2436
1043.1346
1034.9762
1021.7289
995.02641
1016.5169
1032.4933
1035.6832
1035.7557
1022.5909
1020.07
1002.8508
992.91026
940.58579
924.53456
943.60657
1009.6344
1019.6885
978.36198
959.76882
988.35887
1014.4885
1024.167
1023.5057
1000.7296
1022.6491
1034.7807
1036.2133
1039.3054
1040.4639
1026.3581
1022.6875
980.44908
1009.6129
1026.6166
1007.2636
1030.9911
1038.4432
1052.2498
1049.9233
1046.4564
1042.421
1038.1157
1034.5655
1032.4402
1032.5457
1042.6918
1044.0012
1048.0442
1047.3498
1053.0636
1048.9665
1053.2452
1054.3999
1057.6353
1057.013
1060.0547
1059.0224
1061.3303
1061.6399
1056.3109
1056.4551
1058.8702
1064.1593
1064.5829
1066.3877
1060.5686
1062.7179
1068.1426
1067.7488
1062.5953
1060.4527
1065.9774
1068.1159
1069.0588
1069.7965
1069.9976
1071.1755
1072.851
1073.1811
1072.7067
1073.0436
1071.3444
1069.5445
1068.166
1066.1208
1063.9225
1066.0348
1069.1757
1071.0186
1067.9426
1070.0024
1071.7317
1069.7105
1063.9766
1068.2361
1066.4502
1064.5375
1062.4127
1059.9826
1056.9847
1050.4643
1053.6093
1045.7666
1055.1946
1052.0389
1058.4766
1054.4287
1059.9599
1062.9523
1057.6003
1052.4728
1060.0206
1056.8771
1049.0536
1036.7102
1045.2297
1048.631
1035.7562
1032.0436
1042.3926
1029.3163
1041.0969
1036.709
1023.9909
1007.5043
1024.689
1018.0815
1001.8701
984.20378
902.687
941.92291
961.3667
897.50934
964.14779
944.82184
874.09818
764.93228
873.22605
891.10798
754.8844
751.18566
555.61995
558.08441
785.99652
646.0624
793.65011
901.47351
883.24669
731.58789
772.43265
580.55443
775.94876
781.88919
584.35405
463.29525
450.84981
629.75756
441.67561
455.98434
477.81457
426.22966
440.24083
460.94686
566.14321
759.09736
916.94228
989.58736
1014.6867
1020.674
1033.9861
1035.0489
1021.8133
1018.9157
1034.6352
1030.8081
1006.4407
1018.1277
1001.1116
957.4343
976.3277
936.17459
973.9971
1008.4229
1029.7136
1040.6599
1045.842
1046.1773
1042.2708
1047.4116
1047.6487
1042.5176
1046.6789
1051.9024
1051.4366
1051.6491
1052.4696
1046.6986
1042.2542
1048.5514
1047.0734
1051.5109
1055.0166
1058.8658
1058.0885
1053.5358
1053.743
1050.5996
1055.5534
1058.4852
1059.0661
1053.9543
1050.8271
1047.9116
1042.8159
1043.1281
1048.1867
1053.2623
1052.5698
1047.369
1048.1519
1049.5392
1048.031
1053.7788
1055.201
1053.5237
1050.8804
1044.5932
1047.5111
1049.9923
1050.827
1048.6647
1043.176
1035.789
1023.0145
1000.2479
1022.3705
1034.5394
1040.1586
1038.7238
1023.5008
1026.0163
1022.3112
1013.6622
979.8985
987.55751
1006.5651
1030.2723
1038.0807
1026.323
1009.3767
1021.2784
1025.9037
1024.8858
1019.6002
1012.9445
1004.8407
998.25643
981.5969
1009.7013
1009.8881
1022.8379
1019.5448
1009.3645
1005.8009
994.08153
983.51118
980.22659
983.56742
992.70929
1001.4773
1001.7159
1008.8548
1012.6808
1021.2244
1016.0724
1007.9593
1013.5613
1010.9236
1022.9983
1030.1901
1037.1209
1030.3172
1019.4199
1000.1012
993.45179
986.90926
1000.1776
1000.5916
1023.7231
1036.0095
1039.8951
1037.1642
1039.9379
1025.9616
1024.9636
1019.4503
1030.3281
1023.0009
1013.5766
1019.6806
1030.2482
1037.1578
1046.4717
1038.0605
1023.5031
1029.6151
1033.5527
1028.4919
1018.1515
1024.5424
1020.5122
1013.3618
1014.0973
1021.6291
1027.9945
1034.4026
1039.3821
1029.4681
1035.2995
1031.8171
1025.6624
1025.692
1032.7486
1038.4064
1044.1913
1054.0497
1056.6666
1058.5447
1059.5766
1060.0579
1060.1834
1060.0308
1059.8676
1059.7127
1059.7024
1059.8146
1059.9686
1062.1755
1062.3161
1067.6481
1065.7927
1065.3441
1067.2242
1066.8121
1062.0322
1061.9083
1066.5772
1064.6677
1064.9178
1066.4112
1067.2691
1068.2757
1070.1211
1069.1769
1067.5477
1069.3157
1067.3383
1065.427
1063.8691
1066.0891
1068.3746
1067.9296
1065.9268
1063.0267
1065.3217
1057.7853
1059.1309
1061.6819
1064.7674
1062.5405
1059.1668
1047.3384
1053.1728
1055.858
1050.5436
1045.718
1042.0087
1056.3631
1053.434
1051.7761
1034.8386
1038.1859
1034.1627
1029.8866
1025.9874
1021.1134
1040.7747
1041.1404
1036.2269
1038.9162
1032.4834
1014.0607
1021.5819
1016.2702
1021.9055
1026.8129
1045.1973
1047.6658
1056.341
1059.6043
1056.4806
1052.9069
1055.1393
1057.7173
1056.1799
1056.8204
1051.0686
1054.1665
1059.6536
1062.026
1060.7617
1058.4359
1060.7902
1057.6398
1059.064
1060.2014
1057.2014
1051.0075
1048.1645
1047.7296
1042.8035
1048.7167
1053.6592
1053.6929
1056.4198
1057.0703
1051.5471
1052.0226
1057.7379
1055.9475
1059.9549
1062.9669
1063.0619
1059.9822
1054.0786
1053.5784
1050.5463
1057.0934
1059.8295
1058.9164
1052.5051
1049.4677
1046.7057
1041.8899
1040.0662
1044.7417
1051.0167
1052.8364
1048.0526
1046.3012
1050.1559
1051.5035
1056.8511
1055.4327
1057.9607
1058.5091
1052.9385
1052.5798
1052.8196
1051.8786
1049.429
1045.7501
1041.4021
1036.6292
1043.0365
1047.5937
1036.7062
1028.971
1021.4838
1029.8688
1013.164
999.57677
985.57517
992.85648
981.02743
915.56143
906.9231
937.72192
946.57706
953.94339
999.24831
1027.0458
1043.7338
1047.6705
1051.3627
1055.4695
1052.0205
1041.5221
1034.1585
1038.4219
1031.737
1005.0598
993.5497
991.39452
1000.7117
1014.1613
1027.0117
1003.153
997.99146
974.49319
1009.0594
995.15712
985.48878
916.88021
944.55157
950.48232
980.44024
986.13304
1018.9326
1023.4321
1034.7888
1012.5233
1028.0059
1031.3721
1047.4344
1055.1886
1061.5458
1052.7066
1060.3206
1051.9728
1060.5041
1058.4582
1056.1965
1048.5751
1057.7827
1060.048
1051.0445
1053.2622
1062.0846
1056.2251
1064.5072
1069.3887
1067.4938
1062.4605
1060.192
1055.3279
1057.8248
1064.8634
1066.8785
1068.7071
1071.1351
1066.3741
1062.1262
1060.0483
1049.1827
1046.5877
1053.9812
1051.4691
1038.9131
1041.7169
1030.619
1027.2492
1043.6966
1040.4689
1023.5313
1019.3105
1003.7633
1026.665
1042.7766
1053.1188
1056.456
1046.5039
1040.1755
1052.7312
1049.1895
1036.096
1015.3516
1020.2297
1030.9224
1008.7398
990.42523
984.45904
960.63077
1003.644
1029.9478
1045.765
1049.4869
1034.354
1030.4116
1047.4595
1056.5962
1059.4051
1060.4578
1062.1858
1064.1801
1065.138
1067.2162
1066.3864
1064.5167
1066.224
1064.0806
1063.1378
1065.3174
1063.7291
1058.7326
1058.5844
1056.1898
1056.1559
1046.6724
1034.1364
1034.1563
1039.5312
1050.917
1060.3091
1062.4448
1067.3423
1065.5546
1065.2909
1060.1737
1062.2945
1067.081
1068.5712
1069.0698
1069.8814
1070.7721
1070.1399
1071.718
1073.3206
1074.4328
1074.7761
1073.9676
1071.6235
1067.2126
1057.8018
1044.45
1036.8932
1031.6266
1036.4365
1035.4349
1066.8555
1068.0002
1066.8514
1065.3091
1066.976
1035.8919
1031.6419
1046.129
1049.5085
1036.924
1036.9061
1034.3202
1047.8371
1048.5355
1043.081
1048.7293
1043.0799
1048.9756
1040.1609
1045.9965
1053.7136
1058.408
1053.581
1059.3691
1054.9839
1057.1132
1051.111
1052.4098
1048.3904
1035.5409
1065.8996
1060.6092
1060.6482
1059.4777
1075.1944
1075.6925
1061.8612
1060.5687
1067.2975
1070.4573
1064.4232
1068.1344
1062.4234
1068.6915
1073.2028
1078.3663
1076.0332
1073.5072
1075.4267
1080.7486
1082.5559
1081.2929
1074.5828
1074.6846
1074.882
1081.0926
1079.1347
1074.5853
1069.1478
1063.1559
1058.1518
1065.6941
1063.2725
1067.4677
1064.6104
1055.4273
1049.484
1046.115
1047.7934
1034.292
1036.847
1043.0286
1045.9091
1040.0655
1048.8367
1042.9956
1048.6613
1053.5893
1058.3031
1051.0287
1048.4933
1054.9426
1057.0477
1063.1829
1059.3212
1053.5204
1059.361
1055.0488
1049.9305
1054.1938
1056.6356
1060.5145
1058.1667
1063.9554
1059.4396
1061.7633
1065.9154
1067.7605
1062.2766
1058.5749
1061.0601
1064.6068
1069.696
1065.8662
1063.5544
1067.4763
1062.3909
1057.7421
1063.583
1065.7399
1070.1666
1068.3519
1071.4418
1067.116
1069.2318
1073.1937
1074.8721
1071.9351
1073.7205
1069.6194
1072.9108
1070.8472
1073.4451
1068.8433
1062.4332
1055.1144
1050.0161
1054.3373
1056.7758
1061.8998
1059.58
1064.16
1058.3587
1060.7028
1066.1078
1067.9437
1063.687
1058.7125
1061.1916
1065.9988
1069.8698
1064.7769
1062.4599
1064.7441
1057.0262
1047.5966
1035.4666
1041.9903
1052.6992
1054.382
1043.1051
1048.5153
1058.4534
1062.4357
1061.3173
1068.5684
1066.5286
1063.0389
1059.4139
1066.1647
1070.7969
1075.1837
1071.8022
1069.9726
1065.4798
1068.8117
1073.5694
1071.6707
1067.6961
1071.3309
1069.7307
1067.5801
1065.8491
1063.7027
1068.5427
1070.3522
1073.3475
1069.3203
1070.9034
1072.9724
1076.7007
1073.8787
1072.1075
1075.0026
1076.6767
1073.4909
1071.9392
1064.833
1069.8977
1071.8914
1074.9258
1073.2335
1073.5531
1071.7109
1073.5778
1075.2173
1076.8288
1076.5784
1078.2128
1076.5919
1078.2104
1075.4413
1071.5158
1066.3616
1062.9156
1065.3753
1068.6812
1073.4525
1069.8853
1067.5786
1071.2405
1066.1346
1070.771
1064.5664
1067.3817
1069.8849
1072.8114
1070.4917
1075.3003
1071.7295
1074.0457
1077.2308
1080.7394
1077.2708
1075.126
1073.3706
1077.2178
1079.9057
1076.4605
1074.4049
1076.8568
1072.2751
1076.3077
1080.3536
1078.0948
1080.1385
1083.2371
1081.5502
1078.9575
1081.0785
1077.467
1072.2698
1065.5741
1058.0536
1048.3244
1035.5126
1065.8679
1066.97
1059.4566
1060.5949
1060.5223
1061.8255
1067.26
1068.609
1062.3603
1068.0467
1064.3856
1070.4261
1073.0803
1065.9238
1068.9987
1074.3583
1076.424
1074.3403
1071.8384
1074.6454
1076.9552
1080.9976
1078.1514
1075.8406
1079.0658
1082.4638
1078.9629
1074.6506
1079.3878
1082.9145
1080.07
1082.3424
1078.9682
1081.0914
1078.8346
1082.845
1084.6896
1087.6578
1085.0281
1087.4698
1085.4588
1083.7664
1081.1242
1084.246
1086.5555
1084.8647
1081.6976
1083.8061
1079.8884
1074.6793
1069.0423
1074.4474
1079.4343
1083.0035
1080.1412
1076.5035
1074.3808
1071.8897
1069.9518
1074.0989
1077.3046
1072.8922
1070.5969
1075.3814
1079.0434
1077.3228
1073.4391
1076.4975
1074.4504
1078.317
1075.5876
1077.9993
1074.1444
1072.4448
1066.9357
1068.4652
1066.3651
1064.8201
1063.0948
1060.8513
1067.1058
1068.93
1070.6194
1068.8688
1062.6373
1063.5935
1065.6949
1071.4229
1069.7324
1069.9494
1064.0454
1066.111
1071.5945
1073.1246
1072.9961
1072.263
1070.6812
1074.7716
1073.127
1071.4251
1072.9213
1074.535
1076.334
1075.5863
1077.1667
1078.7267
1076.4137
1077.6325
1073.9444
1074.5995
1069.2051
1067.167
1067.5334
1069.5051
1074.674
1077.5028
1077.8982
1076.4251
1076.0955
1077.8397
1079.3204
1078.8453
1077.4257
1075.9501
1074.9328
1073.3544
1073.074
1074.6159
1074.8513
1076.3019
1076.092
1075.3584
1072.8827
1067.5761
1058.731
1048.7452
1035.807
1048.2995
1053.173
1053.0866
1058.5748
1066.4934
1066.3826
1058.5223
1058.3997
1053.1588
1048.7739
1043.5782
1043.4536
1054.8214
1054.7831
1058.63
1062.3526
1062.542
1070.8389
1070.8978
1070.659
1069.9854
1072.0441
1070.7289
1075.8856
1077.1645
1075.5201
1079.1335
1080.6245
1079.5972
1081.7889
1079.9952
1081.6173
1078.1107
1080.1689
1077.3134
1080.7987
1083.2949
1084.701
1082.2906
1080.3548
1078.7942
1076.8733
1075.4087
1076.9778
1075.1645
1073.6295
1071.7524
1069.9756
1073.401
1075.0787
1075.3279
1073.6968
1072.4522
1072.991
1074.7455
1074.0212
1072.3769
1069.2986
1070.9776
1074.0922
1075.6894
1076.3026
1075.1401
1076.9634
1075.3929
1078.4587
1077.2349
1078.0161
1077.283
1078.5128
1078.3135
1079.8801
1081.4868
1081.6711
1080.2676
1078.4561
1080.0776
1078.8513
1079.5233
1078.4544
1080.2596
1078.8029
1081.435
1079.8007
1080.0103
1081.6282
1083.2036
1083.051
1084.6557
1082.2805
1083.6313
1081.8397
1082.7805
1081.8331
1083.6413
1084.84
1083.2382
1083.0797
1083.8492
1083.3168
1081.1787
1077.5689
1072.3937
1074.5471
1079.3201
1080.3637
1075.6175
1073.5837
1078.7288
1082.0968
1083.5788
1082.7772
1084.8305
1085.0461
1083.6202
1082.1974
1080.7506
1080.2616
1080.8445
1079.3524
1077.8062
1076.2505
1074.6623
1073.3747
1074.9776
1072.9738
1075.8727
1074.3148
1071.3792
1065.7567
1069.9494
1071.5847
1065.9067
1064.1778
1062.3781
1055.3153
1046.5696
1058.2863
1051.5312
1036.4348
1033.6572
1044.2491
1028.2727
1041.2646
1038.773
1049.7497
1047.2727
1044.4683
1032.3626
1028.6533
1012.5055
1016.5308
1032.9474
1018.6963
1014.6202
1009.5879
1003.1031
979.75612
999.83808
978.46615
985.89167
1007.7039
987.01119
958.39665
949.21801
915.86613
952.27673
959.43418
987.17218
961.83964
990.84646
983.43012
952.81974
918.15274
926.86192
884.23227
924.72726
931.65162
964.67807
992.76674
1012.8334
1017.0389
997.70082
970.16224
996.0279
991.3966
965.51411
992.62209
997.16238
973.2921
1001.2008
996.43607
967.98757
933.69678
939.70566
970.70551
937.76782
898.85597
891.96913
837.75825
886.72317
928.80515
966.24287
959.63002
920.56428
866.20442
921.44752
912.60045
854.61923
766.32138
773.70079
860.5202
786.96038
634.79211
637.76861
515.85438
691.33599
798.53918
869.8795
878.50087
810.31773
748.71175
828.74901
818.01285
873.24723
821.36962
875.64432
919.78762
959.48023
966.83008
928.56847
879.93779
933.91251
925.28999
868.53146
810.25497
821.4772
884.04521
832.00881
757.35596
743.77464
635.76903
711.38413
790.78373
877.95503
884.52463
953.65194
997.5617
988.30123
1020.4427
1038.8985
1043.6439
1025.8136
994.50112
1000.2083
1009.0751
967.36878
942.58444
936.01536
929.56409
920.8732
981.35295
1012.8543
1012.6569
1020.2307
1038.7864
1048.8786
1053.0042
1052.5103
1047.3039
1047.6432
1043.275
1048.3595
1052.8123
1056.3873
1056.1264
1058.9781
1054.2505
1054.3315
1051.2628
1051.3778
1041.8602
1029.3542
1029.6521
1022.977
1022.2707
1012.0661
1024.6497
1025.3732
1039.5128
1050.8816
1050.8119
1039.3033
1033.8727
1046.5618
1045.8659
1033.2682
1028.6886
1041.1153
1038.9135
1027.035
1020.6594
1018.2285
1009.9135
1009.6981
1022.8503
1029.5156
1031.7878
1037.4331
1038.8035
1050.2125
1048.2625
1043.7518
1039.4303
1034.4592
1024.6038
1020.5334
1013.3561
1014.1324
1008.8986
1012.7887
998.29814
983.61907
992.80859
1004.9521
1013.0747
1021.3301
1016.1217
1001.7165
1001.5281
1008.0179
1013.6266
1019.7437
1000.2066
1025.0599
1037.2772
1030.3151
1023.054
1010.9324
1019.4993
1030.3975
1036.0802
1040.0897
1026.0614
1000.4622
1021.2566
1037.26
1039.946
1025.8419
1023.7404
1019.4373
1000.0079
993.44771
986.91592
983.48922
980.22372
994.07876
1005.7907
1009.3515
1019.5268
1025.6469
1025.7066
1031.8232
1035.3429
1044.239
1038.4169
1032.7479
1028.0063
1021.6581
1028.574
1037.7331
1040.2241
1042.1152
1043.1014
1043.5746
1043.6477
1043.4675
1048.5176
1053.303
1048.1724
1048.7806
1053.8389
1048.6501
1051.4958
1054.5378
1054.447
1059.6627
1059.2502
1060.539
1060.0201
1056.9556
1053.178
1056.5127
1057.5192
1054.2295
1057.5331
1053.6038
1047.9174
1047.2912
1042.6063
1043.8373
1050.0026
1051.9713
1054.671
1049.0042
1045.8193
1048.3799
1050.2798
1055.8802
1054.3189
1058.3508
1056.1228
1058.5321
1056.8532
1057.3251
1060.1071
1062.5669
1061.4941
1059.302
1061.418
1063.9393
1061.9439
1060.2726
1059.3414
1062.5226
1062.5762
1064.7786
1063.4536
1063.4095
1058.5765
1058.6671
1056.2608
1061.5343
1061.3051
1063.6452
1065.476
1065.2636
1060.1429
1062.2785
1067.0408
1067.2638
1062.3828
1060.2485
1060.3699
1058.7904
1056.3499
1061.9419
1064.0205
1064.4193