/*--------------------------------*- C++ -*----------------------------------*\
  =========                 |
  \\      /  F ield         | OpenFOAM: The Open Source CFD Toolbox
   \\    /   O peration     | Website:  https://openfoam.org
    \\  /    A nd           | Version:  7
     \\/     M anipulation  |
\*---------------------------------------------------------------------------*/
FoamFile
{
    version     2.0;
    format      ascii;
    class       volScalarField;
    location    "280";
    object      p;
}
// * * * * * * * * * * * * * * * * * * * * * * * * * * * * * * * * * * * * * //

dimensions      [1 -1 -2 0 0 0 0];

internalField   nonuniform List<scalar> 
25278
(
101315.68
101314.69
101315.99
101315.88
101318.94
101314.25
101314.77
101315.6
101315.11
101310.59
101312.24
101313.69
101314.46
101316.14
101323.7
101315.97
101314.75
101321.34
101324.87
101318.69
101314.15
101314.42
101314.75
101312.27
101308.48
101312.05
101314.55
101312.79
101318.1
101311.73
101309.63
101315.43
101310.27
101313.53
101307.53
101313.9
101309.54
101306.05
101309.84
101304.15
101307.23
101302.56
101303.14
101296.23
101301.24
101304.18
101310.42
101308.25
101302.83
101309.66
101309.52
101318.71
101313.94
101312.15
101313.81
101307.33
101305.65
101311.63
101303.55
101307.53
101302.12
101301.78
101302.05
101306.97
101315.97
101315.03
101306.47
101302.08
101306.45
101308.29
101323.09
101312.42
101315.71
101309.59
101315.64
101306.78
101307.46
101311.59
101314.11
101318.8
101322.34
101323.49
101321.15
101324.8
101318.58
101322.94
101326.2
101331.34
101330.08
101329.37
101323.74
101323.69
101330.32
101333.08
101334.12
101323.52
101329.73
101328.55
101321.35
101321.95
101329.87
101338.44
101335.21
101321.74
101321.4
101330.36
101323.58
101331.95
101330.95
101338.01
101334.93
101326.35
101344.05
101357.84
101337.38
101334.25
101361.85
101328.83
101337.74
101337.1
101323.9
101318.19
101318.69
101329.85
101332.76
101329.65
101337.5
101334.74
101325.68
101322.72
101322.18
101318.41
101320.5
101323.13
101329.85
101330.9
101322.41
101325.85
101343.3
101330.5
101335.71
101356.83
101360.68
101327.66
101320.21
101329.62
101328.87
101322.32
101333.62
101322.33
101323.07
101329.57
101323.16
101328.52
101320.33
101320.57
101320.09
101334.21
101332.96
101311.42
101335.08
101342.01
101313.95
101334.47
101321.69
101330.7
101338.28
101328.81
101359.27
101356.83
101337.77
101328.58
101342.99
101341.93
101424.7
101381.93
101343.01
101338.17
101383.69
101435.35
101340.38
101340.81
101325.22
101335.43
101337.86
101329.27
101320.5
101319.92
101331.5
101364.93
101359.54
101338.18
101324.29
101329.75
101328.97
101326.31
101347.94
101313.93
101449.86
101416.23
101311.74
101344.09
101325.7
101317.22
101318.84
101317.93
101313.47
101317.96
101314.88
101308.86
101313.76
101310.04
101307.05
101302.33
101309.47
101305.35
101309.18
101303.91
101302.84
101295.7
101296.52
101301.16
101306.94
101310.01
101306.75
101301
101297.22
101303.19
101303.26
101304.06
101302.99
101295.47
101292.12
101298.98
101300.43
101301.68
101302.06
101307.32
101313.52
101318.28
101309.12
101313.43
101311.87
101307.31
101301.82
101307.05
101304.61
101310.56
101303.17
101301.41
101301.38
101306.43
101308.37
101317.78
101313.37
101315.24
101307.81
101305.52
101313.6
101305.12
101301.23
101291.36
101292.12
101292.63
101294.25
101288.96
101298.83
101295.97
101299.2
101300.87
101300.36
101298.58
101300.82
101292.71
101293.84
101296.5
101299.82
101295.84
101291.15
101289.6
101290.08
101285.7
101294.45
101291.78
101289.47
101282.31
101285.7
101280.94
101279.6
101285.08
101287.44
101292.57
101301.19
101307
101307.19
101301.35
101304.21
101303.16
101299.87
101292.7
101295.88
101296.89
101298.36
101297.2
101293.89
101293.66
101301.15
101302.77
101300.96
101305.73
101298.6
101306.2
101298.93
101299.41
101297.74
101301.38
101298.64
101305.7
101315.44
101318.72
101306.24
101299.23
101309.47
101300.88
101299.56
101297.98
101311.52
101318.21
101324.24
101311.18
101295.27
101296.21
101288.89
101280.55
101296.82
101284.06
101297.48
101290.2
101289.23
101290.64
101292.8
101293.25
101288.4
101290.28
101287.46
101294.58
101289.72
101284.8
101287.93
101283.79
101284.53
101294.97
101287.91
101286.44
101284.38
101282.91
101278.53
101286.11
101275.78
101275.67
101282.54
101284.67
101281.08
101286.4
101280.67
101289.35
101290.56
101289.73
101298.26
101293.76
101284.82
101288.27
101283.8
101293.79
101301.24
101302.74
101290.22
101289.2
101290.59
101292.23
101292.67
101288.45
101290.48
101297.57
101294.85
101282.76
101284.27
101281.61
101284.99
101287.66
101281.69
101284.27
101285.81
101287.12
101295.02
101284.39
101282.75
101278.63
101286.35
101275.94
101275.94
101276.35
101273.55
101268.3
101267.85
101277.25
101283.37
101290.13
101281.07
101290.54
101282.85
101278.17
101278.88
101278.51
101284.8
101277.56
101285.57
101288.22
101284.41
101276.89
101277.09
101278.43
101272.15
101278.43
101274.17
101280.56
101278.48
101274.06
101272.84
101266.75
101273.46
101265.92
101275.84
101266.32
101264.89
101271.01
101266.54
101273.3
101276.3
101284.76
101275.09
101276.19
101280.36
101289.61
101289.56
101296.63
101299.93
101300.67
101315.2
101317.13
101307.75
101299.1
101299
101299.9
101312.17
101298.16
101319.45
101326.85
101321.08
101316.29
101294.69
101297.88
101297.88
101293.25
101289.97
101329.59
101351.62
101311.59
101322.07
101326.41
101320.38
101301.11
101301.14
101301.47
101301.89
101305.7
101345.24
101347.58
101295.66
101291.87
101301.27
101303.69
101304.03
101299.46
101293.01
101297.43
101285.95
101291.16
101286.62
101291.22
101286.99
101296.95
101289.7
101275.62
101280.73
101274.58
101277.9
101281.17
101273.12
101281.75
101279.31
101281.35
101277.89
101267.44
101273.24
101276.03
101281.56
101280.11
101282.97
101289.47
101289.55
101299.31
101302.04
101300.4
101297.27
101287.32
101293.33
101294.75
101300.08
101300.64
101299.79
101298.08
101298.62
101307.52
101297.05
101311.12
101300.41
101301.13
101301.17
101321.08
101304.63
101300.36
101299.36
101301.09
101296.05
101296.96
101327.24
101320.58
101318.19
101286.79
101316.34
101293.38
101290.14
101296.36
101328.16
101353.13
101343.19
101289.26
101283.13
101300.46
101270.96
101297.99
101277.81
101295.39
101286.39
101301.09
101292.79
101301.2
101302
101300.56
101301.89
101304.2
101297.5
101300.16
101297.67
101294.85
101290.4
101291.7
101296.46
101291.08
101287
101295.4
101293.33
101291.02
101293.66
101283.51
101283.54
101286.6
101280.92
101280.43
101285.02
101287.74
101290.45
101281.14
101290.58
101285.9
101278.93
101283.2
101278.36
101279.18
101274.11
101278.21
101277.32
101283.46
101274.06
101277.31
101285.08
101288.48
101287.06
101278.71
101277.74
101279.29
101272.85
101278.53
101276.15
101265.97
101273.47
101280.43
101273.02
101266.71
101268.15
101267.69
101268.39
101271.74
101271.42
101261.19
101269.79
101258.79
101261.5
101253.1
101255.02
101264.58
101266.58
101275.31
101277.44
101273.92
101279.24
101271.5
101278.08
101271.84
101279.91
101264.37
101269.25
101253.25
101260.69
101265.45
101272.64
101269.96
101273.8
101281.41
101285.68
101288.58
101296.53
101290.45
101293.19
101286.11
101291.73
101292.79
101289.47
101283.77
101288.04
101280.54
101283.66
101284.13
101289.57
101280.31
101278.02
101275.52
101286.16
101287.13
101294.22
101299.68
101293.84
101289.13
101285.98
101286.16
101289.35
101283.46
101288.47
101292.14
101281.76
101280.82
101277.53
101277.45
101280.78
101277.41
101286.21
101290.9
101277.25
101274.9
101285.29
101268.48
101282.23
101272.33
101271.28
101256.18
101265.25
101270.07
101276.91
101272.26
101275.61
101269.11
101265.3
101260.86
101269.08
101275.39
101279.28
101277.25
101282.38
101281.09
101273.6
101266.39
101272.9
101264.62
101267.75
101262
101270.84
101290.32
101282.55
101272.49
101280.88
101294.94
101288.38
101301.32
101293.11
101301.59
101297.23
101296.55
101284.96
101285.65
101281.02
101290.3
101292.12
101291.52
101289.58
101279.78
101279.08
101280.56
101266.97
101267.8
101271.48
101272.9
101276.58
101284.98
101281.2
101275.97
101273.57
101276.28
101275.39
101272.26
101270.73
101273.9
101275.35
101283.65
101282.34
101272.06
101268.05
101279.42
101277.5
101264.79
101263.74
101266.91
101268.65
101280.74
101277.05
101272.52
101276.8
101265.74
101268.11
101270.61
101263.18
101266.95
101270.72
101268.97
101264.62
101255.42
101261.13
101263.52
101258.8
101253.52
101249.04
101260.01
101255.81
101259.68
101249.13
101257.72
101253.08
101263.41
101271.46
101283.15
101285.75
101292.49
101289.33
101297.5
101283.95
101285.12
101284.8
101276.5
101275.45
101282.86
101279.64
101270.49
101269.18
101280.85
101284.8
101291.13
101290.18
101300.11
101285.17
101284.65
101284.47
101274.99
101274.77
101283.99
101279.74
101268.97
101259.69
101259.95
101262.07
101270.78
101272.01
101279.36
101279.42
101292.18
101273.01
101275.98
101274.98
101262.75
101261.36
101251.94
101248.37
101259.92
101270.1
101278.46
101278.68
101294.7
101275.36
101274.86
101274.32
101264.86
101267.48
101266.55
101270.06
101283.57
101260.4
101277.41
101265.51
101265.73
101246.99
101258.38
101246.78
101250.83
101257.07
101262.28
101253.72
101260.55
101252.6
101262.26
101264.96
101278.2
101267.94
101261.08
101265.96
101266.99
101269.94
101261.11
101253.04
101244.57
101234.08
101244.29
101254.42
101255.51
101268.81
101270.03
101260.19
101250.47
101259.05
101261.87
101253.55
101244.69
101239.77
101251.29
101259.75
101250.08
101247.49
101256.85
101265.13
101271.46
101266.84
101268.36
101263.97
101262.56
101253.28
101259.18
101260.83
101266.81
101258.4
101267.67
101262.89
101250.89
101246.95
101251.35
101261.43
101267.71
101263.28
101249.69
101258.06
101256.77
101247.6
101236.9
101238.91
101250.17
101239.02
101249.78
101240.2
101251.28
101249.5
101251.88
101255.63
101249.31
101244.34
101231.12
101240.8
101245.51
101237.6
101247.58
101239.24
101251.65
101243.1
101249.36
101256.37
101261.87
101266.41
101286.12
101277.2
101263.32
101259.58
101261.85
101275.79
101255.88
101268.27
101285.26
101256.43
101255.48
101272.99
101241.55
101249.86
101250.32
101230.07
101238.62
101247.35
101233.93
101244.3
101236.23
101224.15
101208.89
101224.67
101218.76
101234.53
101220.57
101236.07
101241.86
101235.44
101227.86
101243.51
101240.23
101253.08
101257.67
101258.95
101254.2
101240.84
101247.71
101254.56
101243.31
101241.77
101227.63
101238.03
101224.64
101236.78
101239.42
101227.51
101223.76
101225.87
101210.86
101227.33
101213.51
101229.26
101216.84
101234.32
101232.59
101246.57
101223.68
101224.67
101203.37
101203.64
101215.06
101218.97
101227.41
101209.57
101224.08
101234.55
101227.83
101215.21
101196.79
101212.69
101221.52
101208.48
101188.88
101173.5
101197.92
101185.64
101209.76
101189.79
101215.09
101236
101250.93
101262.34
101276.82
101273.8
101270.74
101273.72
101260.45
101263.9
101265.37
101255.79
101253.74
101248.11
101233.01
101241.11
101243.08
101226.02
101239.38
101255.42
101254.01
101238.19
101223.01
101223.34
101241.82
101260.43
101276.13
101296.3
101290.55
101260.38
101262.16
101240.11
101234.86
101251.28
101231.55
101231.47
101248.39
101259.74
101269.87
101270.47
101275.19
101283.95
101285.31
101296.61
101302.19
101308.38
101314.29
101321.43
101325.21
101328.9
101328.31
101330.7
101329.73
101339.97
101331.25
101320.73
101331.18
101363.96
101359.69
101334.78
101339.25
101336.24
101322.95
101321.24
101321.4
101321.18
101321.24
101336.64
101311.09
101350.23
101347.92
101325.83
101335.89
101384.42
101431.13
101331.64
101363.27
101358.64
101339.31
101329.82
101325.06
101335.99
101329.75
101334.33
101324.81
101333.32
101386.42
101439.41
101328.5
101312.77
101333
101336.63
101358.03
101362.3
101330.82
101320.12
101323.59
101337.41
101327.76
101323.56
101340.2
101303.51
101468.96
101440.85
101328.36
101351.12
101328.7
101315.1
101319.04
101309.68
101309.88
101318.8
101312.09
101311.74
101316.31
101315.25
101306.58
101307.25
101302.47
101302.6
101306.91
101308.59
101303.94
101302.33
101305.93
101307.64
101314.05
101307.95
101302.69
101295.65
101302.54
101303.24
101302.2
101300.72
101289.68
101291.62
101292.47
101290.78
101297.57
101301.95
101301.26
101293.11
101293.69
101286.39
101281.85
101280.15
101279.44
101281.34
101284.46
101294.09
101291.58
101297.66
101300.81
101294.14
101288.3
101290.59
101299.74
101293.98
101295.84
101287.93
101287.67
101284.59
101273.89
101274.87
101271.58
101272.23
101270.77
101270.67
101271.57
101273.79
101272.82
101257.51
101258.01
101262.03
101261.66
101250.02
101250.6
101243.78
101242.92
101224.6
101225.28
101235.73
101235.36
101212.02
101213.13
101223.76
101211.18
101189.1
101204.53
101205
101174.72
101200.87
101179.3
101202.18
101223.26
101237.74
101229.69
101248.31
101295.14
101281.31
101249.84
101239.93
101239.25
101265.99
101232.48
101255.28
101229
101243.28
101257.86
101258.31
101265.4
101295.96
101264.16
101290.04
101242.08
101225.26
101229.63
101285.1
101334.8
101273.35
101311.48
101268.12
101288.58
101273.79
101287.63
101275.72
101286.58
101282.79
101273.34
101278.25
101282.05
101286.17
101288.71
101291.88
101286.43
101292.51
101289.88
101288.18
101280.65
101283.1
101280.52
101276.01
101269.74
101274.46
101271.02
101277.44
101284.35
101289.91
101292.86
101286.78
101278.73
101281.63
101278.86
101282.81
101286.51
101294.42
101299.42
101289.78
101284.06
101292.9
101288.47
101286.32
101277.55
101279.63
101287.26
101283.02
101283.3
101278.05
101272.78
101266.21
101262.38
101270.1
101275.81
101286.28
101286.53
101284.52
101296.45
101294.87
101299.56
101299.78
101300.08
101306.89
101313.88
101315.48
101315.34
101314.56
101315.54
101313.83
101313.46
101313.21
101317.66
101308.2
101313.91
101312.17
101305.41
101300.45
101305.24
101305.32
101314.24
101305.93
101299.89
101299.34
101303.8
101308.2
101317.47
101310.14
101310.24
101301.41
101304.91
101312.4
101305.66
101299.41
101291.55
101290.42
101290.57
101290.78
101282.6
101283.33
101277.42
101279.34
101289.2
101290.5
101278.03
101281.7
101271.06
101271.47
101279.88
101275.09
101273.43
101271.86
101269.94
101270.83
101274.41
101282.97
101280.34
101278.37
101266.66
101266.11
101268.4
101280.47
101277.12
101270.69
101268.11
101271.5
101280.15
101281.59
101286.03
101292.9
101301.01
101289.04
101285.3
101285.5
101288.49
101296.02
101284.31
101292.6
101295.12
101289.21
101292.34
101283.92
101274.87
101279.14
101281.95
101274
101276.34
101269.24
101266.41
101259.47
101267.57
101273.84
101272.01
101283.49
101278.52
101281.82
101275.74
101277.06
101273.68
101281.02
101277.22
101283.14
101275.66
101278.25
101281
101272.36
101263.91
101265.36
101255.87
101265.32
101263.84
101254.39
101251.55
101262.34
101269.42
101270.77
101263.88
101265.67
101274.04
101276.6
101275.21
101265.41
101262.73
101265.98
101274.86
101263.07
101253
101257.94
101263
101267.65
101260.27
101259.07
101261.41
101269.01
101270.99
101264.03
101259.58
101267.32
101264.69
101255.91
101253.2
101262.16
101257.47
101260.5
101264.04
101254.92
101250.03
101244.78
101256.49
101260.73
101250.78
101239.81
101244.68
101250.86
101256.56
101263.3
101270.88
101262.88
101254.79
101249.25
101258.65
101266.75
101276.3
101272.75
101270.44
101279.34
101265.16
101267.52
101262.59
101261.11
101257.71
101270.09
101286.76
101279.33
101268.1
101273.22
101272.89
101268.83
101264.47
101277.36
101259.85
101259.94
101253.6
101254.08
101246.57
101270.5
101297.55
101279.85
101265.18
101270.73
101271.96
101267.28
101265.9
101287.06
101257.54
101255.28
101246.42
101248.12
101240.81
101262.76
101303.45
101276.38
101264
101270.09
101276.71
101280.18
101284.64
101291.4
101300.62
101286.91
101284.81
101298.07
101288.84
101284.68
101274.56
101275.25
101284.91
101281
101278.07
101282.45
101283.3
101289.62
101299.13
101299.94
101320.21
101323.51
101305.34
101299.79
101298.06
101298.87
101320.43
101307.79
101348.32
101344.56
101341.57
101293.07
101283.72
101299.95
101298.45
101293.42
101321.87
101283.29
101317.5
101294.67
101311.08
101315.56
101313.55
101297.66
101297.16
101295.25
101295.25
101303.93
101324.77
101319.55
101311.27
101289.1
101287.01
101292.98
101293.11
101281.97
101286.41
101282.11
101292.95
101290.38
101297.02
101297.65
101298.35
101277.42
101280.5
101295.44
101294.68
101280.19
101277.34
101262.38
101262.87
101272.03
101271.43
101261.68
101268.77
101261.07
101262
101271.58
101269.51
101271.84
101260
101262.21
101259.05
101266.4
101273.99
101259.01
101255.9
101270.13
101261.81
101256.34
101244.67
101248.22
101252.91
101240.46
101246.69
101246.85
101253.83
101243.05
101250.99
101249.74
101252.58
101241.62
101246.53
101239.26
101232.53
101245.62
101242.36
101228.29
101238.4
101240.09
101229.12
101213.87
101227.38
101225.27
101228.94
101235.81
101245.54
101257.46
101247.95
101234.63
101225.81
101238.51
101251.48
101257.84
101254.4
101264.38
101253.57
101242.25
101237.87
101250.21
101261.46
101250.39
101242.78
101246.92
101229.26
101212.85
101233.51
101240.27
101232.56
101241.09
101255.01
101251.13
101249.2
101252.17
101275.95
101292.47
101354.77
101283.08
101329.19
101288.35
101280.67
101289.38
101332.6
101263.34
101367.34
101440.06
101303.59
101301.17
101377.37
101246.27
101277.32
101285.1
101382.79
101299.68
101306.05
101435.05
101311.99
101361.88
101253.56
101387.76
101313.06
101288.23
101440.34
101500.24
101656.32
101466.6
101426.13
101445.05
101197.04
101222.51
101505.21
101263.55
101391.13
101297.82
101347.05
101306.49
101322.07
101302.13
101301.71
101323.37
101310.9
101301.02
101302.44
101304.09
101301.62
101352.4
101325.11
101295.95
101293.8
101294.23
101266.15
101297.26
101275.99
101295.17
101285.44
101300.02
101290.17
101291.64
101301.63
101286.93
101284.85
101285.15
101279.37
101279.04
101295.85
101278.57
101275
101276.02
101260.82
101249.79
101260.48
101269.5
101279.75
101281.42
101285.34
101275.53
101269.77
101271.67
101280.27
101283.37
101289.8
101297.6
101301.98
101293.2
101285.63
101285.95
101284.57
101289.35
101295.65
101292.43
101280.5
101280.46
101276.23
101277.36
101273.94
101282.11
101274.24
101289.35
101284.66
101294.55
101300.5
101312.55
101316.79
101315.94
101301.33
101299.3
101298.9
101297.7
101307.77
101326.98
101318.45
101318.55
101287.92
101291.62
101297.04
101297.63
101293.92
101315.42
101295.97
101312.06
101299.91
101310.29
101304.84
101310.36
101309.96
101314.55
101310.53
101304.66
101304.53
101307.11
101308.55
101307.46
101311.88
101312.94
101318.21
101315.74
101310.78
101314.1
101307.84
101309.72
101306.51
101303.76
101303.26
101307.78
101315.96
101307.12
101306.17
101301.78
101300.22
101299.34
101306.73
101319.5
101317.95
101313.65
101318.62
101325.01
101318.6
101301.91
101298.68
101297.09
101298.63
101311.51
101299.39
101306.97
101299.36
101305.96
101315.69
101309.47
101301.19
101300.01
101285.68
101290.87
101297.79
101299.09
101303.24
101297.17
101301.87
101300.39
101303.44
101301.81
101304.61
101297.8
101296.67
101293.69
101291.39
101295.54
101298.13
101300.42
101301.41
101297.99
101292.57
101296.95
101291.9
101280.16
101277.87
101274.49
101272.89
101269.32
101268.24
101265.21
101264.56
101263.32
101263.06
101263.8
101264.11
101273.47
101275.45
101261.06
101260.12
101257.86
101258.5
101256.15
101272.53
101271.95
101255.61
101254.93
101255.34
101240.02
101244.53
101247.94
101249.11
101245.1
101227.97
101233.45
101232.53
101228.55
101220.47
101222.13
101241.33
101240.77
101239.52
101221.35
101223.7
101194.26
101189.38
101204.22
101213.18
101210.66
101204.81
101182.77
101183.9
101187.06
101179.26
101158.16
101144.85
101184.58
101194.18
101191.41
101154.83
101158.22
101186.37
101211.73
101212.43
101234.11
101250.88
101252.87
101267.41
101265.94
101298.77
101272.18
101259.38
101261.7
101237.67
101216.82
101233.99
101233.57
101249.67
101260.78
101270.76
101260.89
101263.11
101271.94
101276.43
101277.6
101286.56
101283.99
101272.67
101264.9
101263.61
101254.27
101255.19
101264.44
101273.23
101274.34
101278.55
101283.43
101290.05
101294.95
101300.37
101290.42
101287.2
101287
101282.1
101283.02
101293.07
101283.8
101278.83
101278.95
101266.54
101260.03
101268.1
101275.01
101282.18
101287.04
101288.05
101280.56
101276.88
101279.39
101285.39
101285.02
101291.59
101294.3
101300.77
101297.2
101289.65
101289.08
101287.49
101292.74
101293.74
101290.55
101285
101286.83
101282.68
101282.04
101279.14
101287.29
101291.85
101286.61
101291.33
101284.89
101297.14
101291.02
101269.49
101268.31
101262.58
101264.91
101262.22
101277.69
101296.31
101283.04
101302.39
101245.85
101248.57
101235.24
101236.54
101256.97
101232.19
101194.32
101222.7
101237.17
101252.68
101256.36
101241.36
101242.08
101257.48
101244.88
101243.74
101227.96
101215.33
101187.87
101188.51
101179.05
101181.08
101201.12
101201.08
101175.63
101209.91
101206.45
101227.73
101218.61
101214.8
101182.94
101189.14
101141.77
101176.52
101142.91
101175.48
101152.16
101149.82
101102.27
101159.95
101147
101176.31
101192.96
101210.82
101190.15
101208.17
101188.84
101208.54
101213.34
101222.24
101210.3
101226.57
101217.62
101198.64
101191.18
101212.36
101196.32
101216.21
101233.92
101237.94
101221.68
101230.52
101223.98
101212.99
101231.59
101226.14
101225.26
101234.2
101216.42
101202.93
101205.06
101182.72
101193.32
101203.23
101214.85
101193.48
101178.13
101164.86
101183.33
101207.48
101224.36
101206.11
101227.65
101218.55
101238.33
101247.34
101260.11
101245.23
101229.68
101228.18
101244.25
101259.12
101245.7
101237.15
101212.16
101212.5
101186.14
101183.75
101215.41
101204.13
101231.96
101242.65
101257.93
101240.31
101220.46
101220.57
101240.72
101251.02
101238.04
101239.26
101243.43
101245.96
101257.74
101252.47
101238.47
101234.89
101249.64
101255.6
101253.3
101246.41
101257.53
101273.25
101270.34
101268.9
101269.65
101276.58
101287.51
101287.45
101288.91
101275.63
101262.66
101270.16
101252.69
101253.45
101252.12
101259.89
101267.55
101251.05
101236.97
101239.15
101243.43
101247.8
101231.96
101239.84
101242.4
101249.45
101256.16
101262
101267.63
101268.98
101280.63
101294.87
101301.22
101305.1
101309.95
101312.02
101314
101314.72
101314.12
101313.21
101313.22
101310.1
101304.67
101309.6
101308.18
101300.88
101294.75
101302.73
101308.93
101299.87
101301.02
101301.78
101293.32
101291.98
101293.04
101299.72
101296.59
101301.72
101302.37
101309.79
101306.07
101306.65
101299.82
101297.23
101307.36
101307.82
101312.65
101310.46
101311.32
101310.57
101313.28
101314.78
101311.79
101306.99
101310.53
101315.09
101311.68
101311.43
101308.44
101312.17
101314.73
101317.08
101317.08
101312.62
101314.43
101313.46
101317.19
101315.04
101314.36
101313.56
101314.14
101314.33
101317.82
101315.21
101310.89
101306.78
101304.55
101306.2
101307.1
101296.07
101305.32
101303.66
101308.47
101309.87
101309.8
101303.9
101295.39
101301.57
101301.1
101294.45
101293.28
101294.23
101302.53
101297.98
101303.13
101301.32
101300.7
101306.62
101307.83
101308.33
101310.42
101303.38
101297.94
101295.93
101287.97
101279.18
101289.38
101291.05
101280.19
101279.89
101279.64
101290.16
101283.85
101286.63
101286.54
101283.41
101292.73
101297.07
101291.5
101297
101286.74
101279.37
101294.45
101280.96
101273.14
101281.27
101278.16
101273.79
101268.5
101269.52
101283.44
101273.65
101278.21
101281.67
101287.32
101287.63
101293.32
101279.72
101269.91
101284.22
101294.16
101295.44
101287.29
101278.69
101288.89
101289.26
101278.72
101278.74
101278.56
101289.25
101282.52
101285.09
101285.5
101282.58
101292.02
101295.94
101289.86
101295.15
101284.59
101279.91
101293.45
101296.98
101300.05
101290.37
101288.09
101284.35
101287.55
101295.72
101290.33
101297.97
101299.77
101287.27
101292.33
101287.93
101297.05
101297.14
101308.51
101296.6
101302.97
101303.22
101296.87
101301.78
101298.42
101293.19
101293.76
101286.45
101287.03
101278.54
101280.91
101272.74
101272.75
101276.89
101272.53
101282.88
101278.78
101292.55
101283.37
101285.67
101280.15
101276.8
101271.32
101269.27
101271.93
101274
101261.5
101272.08
101266.75
101260.99
101253.01
101256.33
101273.2
101260.57
101267.76
101272.66
101280.35
101284.95
101290.47
101291.73
101294.93
101294.44
101289.15
101297.68
101303.56
101300.1
101304.24
101295.28
101287.7
101297.66
101308.83
101305.76
101297.33
101303.04
101309.52
101303.31
101303.82
101304.43
101310.64
101308.1
101307.21
101303.67
101297.94
101295.55
101297.68
101297.34
101303.18
101292.12
101282.5
101293.26
101304.19
101296.2
101304.46
101311.76
101308.39
101302.77
101302.27
101301.52
101303.05
101298.57
101308.04
101305.98
101308.61
101309.01
101313.26
101313.51
101310.93
101312.09
101307.8
101312.09
101310.97
101312.92
101309.64
101312.48
101312.51
101315.47
101315.5
101310.8
101309.26
101313.12
101310.75
101307.71
101304.63
101310.7
101313.9
101314.12
101315.22
101311.99
101311.13
101310.92
101306.94
101313.49
101317.51
101313.59
101317.39
101318.18
101311.41
101316.73
101316.16
101316.4
101318.1
101318.83
101314.76
101320.99
101320.94
101317.48
101310.07
101314.32
101316.32
101312.62
101314.54
101308.05
101311.78
101313.04
101308.51
101312.87
101317.32
101312.58
101316.41
101309.77
101306.99
101303.39
101302.23
101309.76
101306.63
101308.05
101301.4
101302.18
101300.6
101295.99
101294.89
101302.44
101290.85
101288.78
101289.96
101287.35
101290.93
101286.88
101289.67
101291.87
101279.14
101284.67
101284.79
101275.32
101274.99
101278.79
101275.61
101271.73
101272.38
101269.76
101280.65
101271.66
101267.7
101264.1
101266.06
101279.51
101268.33
101272.71
101275.67
101279.08
101281.72
101276.18
101272.78
101268.27
101264.19
101268.87
101261.6
101267.29
101272.24
101279.59
101282.47
101279.92
101284.62
101281.58
101286.71
101274.97
101273.36
101287.95
101279.16
101273.18
101276.38
101269.01
101273.14
101267.68
101275.57
101271.12
101262.42
101255.38
101264.16
101259.22
101254.32
101259.67
101248.87
101256.82
101265.12
101260.58
101269.2
101270.09
101287.47
101293.58
101298
101306.86
101294.17
101296.1
101304.96
101305.42
101304.9
101303.33
101303.48
101293.38
101292.67
101283.93
101285.68
101280.83
101278.27
101285.31
101295.08
101296.4
101280.75
101284.72
101284.03
101288.75
101300.04
101296.24
101296.61
101295.57
101289.43
101285.89
101293.32
101294.16
101293.86
101295.69
101301.17
101303.19
101311.13
101303.02
101305.75
101306.98
101306.88
101303.08
101295.11
101292.17
101281.52
101281.21
101287.27
101270.69
101273.43
101256.59
101261.33
101260.23
101265.72
101259.85
101252.57
101243.9
101251
101259.98
101253.12
101244.31
101232.67
101243.15
101252.46
101261.78
101264.95
101270.75
101287.29
101281.55
101277.36
101273.47
101275.74
101272.52
101276.15
101278.84
101285.79
101293.62
101293.89
101300.82
101287.67
101284.52
101282.99
101282.62
101288.05
101300.98
101292.52
101295.16
101287.38
101285.78
101295.16
101302.96
101301.83
101308.15
101303.4
101312.57
101304.74
101300.04
101304.2
101312.34
101309.15
101301.76
101300.34
101299.88
101300.18
101299.29
101300.93
101296.64
101303.13
101305.82
101305.84
101307.63
101299.76
101300.54
101299.3
101305.6
101305.09
101306.7
101306.83
101299.66
101292.16
101283.53
101286.06
101283.21
101275.1
101266.45
101260
101253.64
101244.27
101252.42
101243.25
101253.5
101246.63
101234.33
101222.63
101234.22
101244.7
101234.33
101220.97
101211.03
101192.67
101169.39
101197.57
101180.16
101143.85
101149.58
101168.18
101134.81
101166.39
101176.6
101194.88
101206.53
101221.69
101209.54
101231.14
101221.44
101197.24
101210.97
101194.39
101224.41
101244.4
101289.82
101270.92
101250.77
101271.97
101238.92
101241.44
101240.83
101240.16
101239.04
101272.12
101292.96
101231.98
101240.05
101241.75
101244.93
101273.4
101241.33
101275.83
101238.51
101249.08
101237.11
101200.52
101205.33
101214.36
101220.94
101190.05
101183.1
101170.24
101174.86
101210.43
101200.95
101211.38
101176.41
101169.27
101187.61
101219.07
101206.04
101201.69
101150.24
101151.73
101150.21
101151.04
101206.73
101192.71
101183.14
101185.24
101197.91
101229.08
101229.57
101227.62
101227.99
101284.91
101217.94
101274.22
101218.38
101220.18
101212.92
101215.19
101194.18
101254.06
101383.79
101269.69
101335.34
101230.4
101235.62
101267.09
101249.79
101328.53
101251.85
101322.63
101335.13
101283.51
101313.46
101235.86
101229.96
101230.19
101236.72
101281.16
101223.23
101278.16
101240.18
101231.88
101247.51
101265.03
101257.57
101368.28
101380.26
101271.76
101334.79
101226
101239.21
101252.55
101254.34
101265.8
101271.25
101258.08
101242.75
101231.53
101200.76
101199.91
101159.22
101159.79
101203.08
101240.4
101241.63
101296.66
101270.32
101269.8
101263.41
101269.59
101276.14
101279.4
101283.99
101284.95
101284.81
101298.97
101289.54
101283.43
101273.7
101274.05
101268.13
101278.91
101278.91
101283.11
101281.32
101282.71
101295.26
101295.02
101299.78
101298.36
101300.7
101299.35
101298.18
101288.87
101274.67
101275.61
101289.08
101287.77
101277.17
101279.18
101288.08
101294.92
101283.86
101285.79
101297.18
101300.19
101298.79
101301.73
101309.13
101301.49
101291.54
101290.6
101292.34
101290.23
101278.23
101281.72
101282.03
101285.84
101288.81
101297.12
101301.29
101298.53
101302.63
101308.24
101303.82
101307.81
101314.08
101307.98
101307.98
101301.23
101300.38
101299.25
101305.27
101312.99
101304.59
101314.52
101307.48
101317.11
101294.76
101295.92
101297.87
101303.34
101304.56
101303.07
101294.48
101297.85
101293.72
101308.56
101322.36
101289.1
101291.56
101293.46
101308.1
101316.86
101303.03
101317.28
101316.91
101311.88
101311.48
101317.4
101310.46
101305.43
101306.74
101305.11
101298.15
101295.1
101297.64
101294.14
101286.05
101291.71
101287.04
101291.6
101293.22
101292.84
101289.96
101298.15
101290.45
101297.5
101291.91
101298.92
101296.07
101287.84
101283.24
101282.44
101285.39
101282.57
101290.37
101283.65
101280.6
101277.65
101268.15
101267.84
101260.32
101260.92
101270.84
101261.4
101249.81
101249.03
101260.48
101270.16
101278.49
101293.91
101294.43
101277.45
101277.32
101274.73
101274.64
101278.16
101290.91
101272.67
101277.69
101292.08
101277.47
101273.03
101260.47
101260.02
101269.58
101273.34
101273.84
101268.65
101261.24
101260.71
101250.1
101250.66
101240.14
101238.61
101236.44
101236.69
101251.44
101252.31
101245.14
101256.43
101255.62
101271.07
101270.99
101269.51
101260.22
101260.35
101255.65
101251.31
101251.17
101260.47
101268.06
101249.95
101250.37
101267.79
101260.26
101260.23
101270.62
101268.52
101260.93
101256.81
101258.18
101273.38
101271.09
101261.9