/*--------------------------------*- C++ -*----------------------------------*\
  =========                 |
  \\      /  F ield         | OpenFOAM: The Open Source CFD Toolbox
   \\    /   O peration     | Website:  https://openfoam.org
    \\  /    A nd           | Version:  7
     \\/     M anipulation  |
\*---------------------------------------------------------------------------*/
FoamFile
{
    version     2.0;
    format      ascii;
    class       volScalarField;
    location    "280";
    object      T;
}
// * * * * * * * * * * * * * * * * * * * * * * * * * * * * * * * * * * * * * //

dimensions      [0 0 0 1 0 0 0];

internalField   nonuniform List<scalar> 
25278
(
299.9977
299.99789
299.99848
299.99838
300.00098
299.99758
299.99726
299.99762
299.99756
299.99322
299.99547
299.99714
299.9972
299.99843
300.02025
299.99854
299.99795
300.01282
300.02303
300.00691
299.99806
299.99724
299.99738
299.99498
299.99001
299.99483
299.99727
299.9963
300.00078
299.99503
299.99666
300.00398
300.01194
300.00578
299.99733
300.0016
299.99658
299.99881
300.00434
300.00979
300.00601
299.99991
300.00323
299.99613
299.9936
299.98984
299.99277
299.99111
299.9904
299.99879
300.0007
300.00925
300.024
300.01903
300.00679
300.0009
300.00336
300.00962
300.01814
300.01379
300.00699
300.01067
300.01381
300.00508
300.01139
300.01269
300.00629
300.01563
300.02316
300.02112
300.0348
300.0301
300.02354
300.01742
300.01144
300.00293
299.9971
299.99479
299.99696
300.00219
300.00675
300.02014
300.01252
300.0227
300.00465
300.01047
300.03205
300.07478
300.05743
300.03813
300.0339
300.05285
300.05702
300.08815
300.08299
300.05293
300.04678
300.02915
300.02307
300.04044
300.04702
300.0765
300.0683
300.03987
300.05749
300.06386
300.06993
300.12494
300.12937
300.16347
300.08913
300.08389
300.15748
300.15116
300.11945
300.11146
300.14467
300.07098
300.07694
300.07958
300.02447
300.00504
300.00105
300.06386
300.09599
300.13689
300.16713
300.09097
300.03378
300.01098
300.00764
300.00272
300.01488
300.02299
300.063
300.07967
300.07566
300.08612
300.16237
300.13407
300.13046
300.15778
300.15313
300.07419
300.06446
300.07003
300.05331
300.0592
300.09188
300.06035
300.02409
300.04314
300.03923
300.0343
300.01592
300.02822
300.04687
300.07935
300.12457
300.25256
300.39836
300.37463
300.23091
300.11185
300.05831
300.06369
300.07464
300.07044
300.14207
300.14517
300.11856
300.23053
300.35288
300.36925
301.34605
301.09416
300.36583
300.38286
301.11124
301.36777
300.38467
300.3644
300.24695
300.13126
300.08644
300.05463
300.04844
300.06818
300.12659
300.15459
300.15627
300.08385
300.02776
300.07285
300.08018
300.06658
300.14826
300.40038
301.64408
301.61942
300.37973
300.13389
300.05686
300.0452
300.02844
300.01427
300.00556
300.00056
300.00352
299.9962
300.00107
300.01121
300.00538
299.99929
299.99607
299.99803
300.00353
300.00871
300.00222
299.99525
299.99338
299.98845
299.99027
299.99239
299.98686
299.98184
299.98293
299.98387
299.98937
299.99173
299.98654
299.98658
299.9878
299.98696
299.99291
299.99421
299.98968
299.99033
299.99757
300.0063
299.99809
300.00579
300.01785
300.01234
300.00552
299.99988
300.00209
300.00841
300.01629
300.00878
300.01175
300.00373
299.99995
300.00875
300.02298
300.01018
300.01924
300.02162
300.01173
300.00509
300.01378
300.00469
300.00293
300.00045
299.99778
299.98932
299.98755
299.98849
299.99588
299.99717
299.99034
299.98151
299.9824
299.98245
299.98253
299.9791
299.98023
299.97773
299.98147
299.98143
299.97687
299.97627
299.97836
299.97779
299.98265
299.98256
299.98184
299.98394
299.9834
299.98303
299.98063
299.97841
299.98206
299.98717
299.99051
299.98865
299.99218
299.98696
299.9876
299.98855
299.98704
299.99389
299.99634
299.98945
299.98766
299.9916
299.99553
300.00038
300.00929
300.00395
300.01026
300.01946
300.02797
300.01741
300.0286
300.01736
300.00974
300.0033
300.01081
300.0277
300.01898
300.02662
300.01616
300.00801
300.01602
300.02749
300.03992
300.02781
300.05506
300.04097
300.05984
300.04327
300.02081
300.01644
300.01204
300.00855
300.00524
300.00258
299.99722
299.99933
299.9973
300.00247
300.00482
300.00803
300.00171
299.99906
300.00029
299.98903
299.99384
299.9926
299.98755
299.98707
299.98815
299.99303
299.99414
299.9889
299.98962
299.98804
299.98867
299.9954
300.00152
300.00448
300.01174
300.01632
300.00786
300.00401
300.00501
299.99982
299.99579
299.9872
299.98865
299.99291
299.99171
299.99078
299.99463
299.99941
300.00152
299.99622
299.99794
299.99608
300.00116
300.00332
300.0064
300.00414
299.99802
300.00049
300.00748
300.01003
300.00287
300.00018
299.99427
299.99289
299.99192
299.98716
299.98634
299.98675
299.9878
299.98841
299.98722
299.98786
299.99448
299.99599
299.98912
299.9828
299.98242
299.97955
299.97312
299.97571
299.97689
299.9794
299.97863
299.98279
299.98318
299.97892
299.97949
299.97667
299.97439
299.97483
299.97346
299.97573
299.97554
299.97304
299.97139
299.97211
299.9747
299.97801
299.98269
299.98303
299.97814
299.9771
299.97709
299.97307
299.97019
299.96929
299.97252
299.97423
299.97394
299.97542
299.97661
299.97971
299.97919
299.98382
299.98888
299.988
299.99312
299.99754
300.00296
300.01315
300.0217
300.04349
300.03514
300.02403
300.03242
300.01826
300.02764
300.04529
300.07017
300.05342
300.09598
300.08241
300.06469
300.04053
300.05549
300.09232
300.11537
300.14805
300.08515
300.0534
300.0323
300.05562
300.03596
300.0266
300.0232
300.04118
300.0473
300.06016
300.09705
300.1331
300.17434
300.16155
300.13139
300.07313
300.08574
300.05495
300.04989
300.04306
300.03635
300.02967
300.02417
300.01907
300.01465
300.01111
300.00312
300.00683
300.01588
300.02011
300.01036
300.00627
299.99813
299.99624
299.99092
299.99704
299.98934
299.99133
299.99042
299.99746
299.99565
299.99799
299.99605
299.99452
299.99045
299.98841
299.99514
299.99706
299.9896
299.99267
300.00223
299.99912
300.00459
300.01519
300.02104
300.03631
300.02664
300.03739
300.04867
300.05692
300.04575
300.02633
300.02937
300.03794
300.06281
300.05131
300.09131
300.07957
300.0605
300.04344
300.05573
300.0978
300.07418
300.12013
300.08405
300.06703
300.09811
300.1408
300.15466
300.08953
300.09992
300.17731
300.16989
300.12165
300.08668
300.06177
300.04519
300.03264
300.02382
300.01706
300.00656
299.99944
299.99119
299.98274
299.98327
299.98444
299.98338
299.98072
299.97977
299.98314
299.98206
299.98187
299.97816
299.9775
299.97718
299.97924
299.98327
299.9837
299.97894
299.97719
299.9838
299.98278
299.98503
299.98426
299.98366
299.98098
299.97607
299.97743
299.97998
299.98026
299.97974
299.97923
299.98346
299.98412
299.98405
299.98337
299.97981
299.97335
299.9752
299.97627
299.974
299.9754
299.97511
299.97738
299.97627
299.97374
299.97208
299.97261
299.97063
299.97354
299.97765
299.9786
299.979
299.97799
299.98388
299.98309
299.98298
299.97928
299.97084
299.9721
299.97677
299.97673
299.98363
299.98321
299.98253
299.99029
299.99907
300.00741
300.01172
300.02153
300.0277
300.01639
300.01071
300.01553
300.02677
300.03522
300.022
300.00875
300.00503
300.00208
299.99958
300.00305
300.00029
300.00808
300.00462
300.0017
299.99908
300.00128
300.00712
300.01053
300.00751
300.01136
300.01514
300.00787
300.00427
299.99822
299.99636
299.99067
299.98924
299.99036
299.99206
299.994
299.99204
299.99809
300.00327
300.00929
300.01188
300.0056
300.00987
300.00703
300.01345
300.01674
300.02312
300.01888
300.01145
300.01522
300.02191
300.01685
300.01217
300.02075
300.0159
300.02157
300.01234
300.0176
300.02778
300.03623
300.02815
300.0173
300.02397
300.01171
300.00737
300.00372
300.00071
299.9935
299.99138
299.9925
299.99513
299.99838
299.99602
300.0038
300.0006
300.00311
300.00012
299.99373
299.99611
299.99884
300.00716
300.01227
300.00774
300.01266
300.02382
300.03431
300.02569
300.03154
300.03675
300.02685
300.01951
300.01387
300.00494
299.99845
299.99053
299.99128
299.99598
299.99468
299.98506
299.98414
299.97888
299.97899
299.98457
299.98594
299.97785
299.97749
299.97894
299.97843
299.97799
299.97767
299.97751
299.98067
299.98125
299.98602
299.98629
299.98509
299.98028
299.98099
299.97661
299.97638
299.9735
299.97493
299.9748
299.97334
299.97333
299.9748
299.97492
299.97348
299.97762
299.97702
299.98191
299.9819
299.98705
299.98834
299.98277
299.98304
299.98937
299.98773
299.98851
299.98665
299.98518
299.97956
299.98037
299.97934
299.97848
299.98514
299.9869
299.98926
299.98072
299.98153
299.98301
299.9907
299.99219
300.00219
300.00635
300.0018
299.99822
299.99516
300.0018
300.00749
300.00936
300.01589
300.02218
300.01495
300.01261
300.00556
300.00773
300.00348
299.99664
300.00014
300.00159
299.99758
300.00454
300.01052
300.01123
300.01781
300.02485
300.01757
300.01666
300.00932
300.01018
300.00519
299.99819
300.00238
300.00779
300.00664
300.00452
300.01359
300.01054
300.01899
300.02223
300.03038
300.04195
300.03178
300.02714
300.01702
300.02144
300.01036
300.01357
300.02483
300.01588
300.02466
300.02593
300.03401
300.0473
300.03721
300.03529
300.0507
300.04527
300.03834
300.03079
300.04215
300.05621
300.04502
300.03222
300.04185
300.02725
300.01886
300.00638
300.0012
299.99699
299.99377
299.99518
299.99236
299.9936
299.99125
299.98983
299.98863
299.99005
299.99124
300.00082
299.99855
300.00123
300.00422
299.99287
299.99522
299.98226
299.98274
299.98237
299.98215
299.9824
299.97629
299.97516
299.97429
299.97586
299.98256
299.98228
299.98213
299.9725
299.97411
299.97547
299.97504
299.96837
299.97114
299.97325
299.97496
299.97496
299.97164
299.97131
299.97515
299.97305
299.97303
299.96916
299.96993
299.96732
299.96879
299.96599
299.96965
299.96761
299.96941
299.97173
299.96844
299.96578
299.96347
299.96673
299.97046
299.9678
299.96468
299.95949
299.96329
299.95978
299.96394
299.96159
299.96591
299.97045
299.97699
299.98496
299.98699
299.97777
299.97541
299.97491
299.98455
299.98679
299.99909
300.00449
300.01866
300.02614
300.017
300.01019
300.00629
300.02338
300.03607
300.04648
300.03201
300.04164
300.03075
300.04589
300.05946
300.07547
300.05822
300.04305
300.05676
300.07368
300.0982
300.07575
300.05635
300.03533
300.02343
300.01499
299.99883
299.99682
300.0015
300.00427
300.01285
300.00838
300.01813
300.01158
299.99563
299.99387
299.98993
299.97933
299.9818
299.98265
299.97432
299.97636
299.97561
299.97119
299.97132
299.96805
299.96809
299.9685
299.96461
299.97008
299.96589
299.96699
299.96249
299.96504
299.97298
299.97052
299.96095
299.95458
299.9487
299.95597
299.9519
299.95924
299.95719
299.96362
299.97024
299.97345
299.97115
299.96317
299.95587
299.96618
299.96548
299.97701
299.99039
299.99049
299.98624
299.98392
299.97216
299.97206
299.96739
299.96865
299.98308
299.9852
299.98991
299.96789
299.97342
299.97697
299.98006
299.98513
299.98533
299.98512
299.98477
299.98428
299.9836
299.9895
299.99071
299.98451
299.9855
299.99268
299.99108
299.99311
299.99542
299.98653
299.98772
299.99905
299.99562
299.99881
300.01239
300.0257
300.03237
300.01851
300.03024
300.02041
300.03731
300.05291
300.0672
300.0496
300.05696
300.07904
300.06372
300.04791
300.05676
300.03767
300.02363
300.02668
300.01537
300.02672
300.01711
300.01706
300.01015
300.00519
299.99603
299.99134
299.99128
299.99123
299.99815
300.01297
300.02305
300.04734
300.02944
300.04719
300.06405
300.07455
300.07031
300.05868
300.113
300.14184
300.14495
300.1195
300.07697
300.06878
300.04063
300.02343
300.01296
300.04046
300.05826
300.11224
300.23251
300.36711
300.35125
300.23147
300.36777
301.07141
301.31764
300.37795
300.14562
300.15158
300.11986
300.06454
300.02353
300.07784
300.07298
300.13075
300.24412
300.37637
301.10633
301.34791
300.38904
300.24955
300.38295
300.36257
300.15571
300.15439
300.12632
300.06844
300.02803
300.08383
300.08027
300.0669
300.14866
300.40001
301.60693
301.58692
300.37683
300.13416
300.05696
300.02402
300.00927
300.00076
299.99899
300.00705
300.01921
300.00973
300.01146
300.01271
300.00632
300.00518
300.01389
300.01565
300.02318
300.02122
300.01824
300.01079
300.00352
300.00117
300.00698
300.01397
300.00722
299.99945
299.99549
299.99071
299.98372
299.98289
299.98466
299.97913
299.97932
299.98447
299.99076
299.99857
299.99948
300.00658
300.00501
299.99486
299.98544
299.98606
299.97806
299.97808
299.97809
299.97959
299.9842
299.98998
299.99727
300.00239
299.99303
299.99102
299.98895
299.98394
299.98005
299.97826
299.98363
299.98444
299.98884
299.98986
299.99093
299.99164
299.99208
299.99205
299.99152
299.98514
299.9856
299.98706
299.9865
299.99394
299.99464
299.99833
299.9973
299.98804
299.98885
299.99138
299.99014
300.00199
300.00364
300.01188
300.00897
300.00409
299.98932
299.99141
300.01137
300.00287
300.00811
299.99737
299.99872
300.02621
300.05231
300.03821
300.05354
300.07375
300.09025
300.10876
300.09194
300.13451
300.10219
300.12439
300.15864
300.18398
300.16643
300.10791
300.07252
300.07779
300.05375
300.0649
300.09221
300.13118
300.11827
300.19064
300.20583
300.32382
300.28221
300.22917
300.17022
300.12888
300.0971
300.07569
300.05824
300.04467
300.03402
300.02576
300.01488
300.00985
300.00574
300.00251
299.99987
300.00559
300.00806
300.00508
299.99934
300.00193
299.99607
299.99438
299.99605
299.98967
299.99057
299.99812
300.00071
299.99814
300.0051
300.01228
300.00919
300.01351
300.01744
300.00898
300.01273
300.00798
300.00418
300.00098
300.00694
300.01053
300.01332
300.00919
300.00294
300.00654
299.99996
299.99794
299.99597
299.99458
299.98907
299.99014
299.9912
299.99241
299.99473
299.99303
299.99159
299.99013
299.9911
299.99285
299.98927
299.98999
299.99826
299.99856
299.9905
299.99023
299.99749
299.99819
299.99746
299.99715
299.99819
299.99714
299.99706
299.99772
300.00923
300.00028
300.01216
300.02432
300.02236
300.01451
300.00547
300.00492
300.01161
300.02159
300.01375
300.01166
300.00376
299.99896
300.00762
300.02104
300.01041
300.01958
300.01615
300.00816
300.00181
300.00877
300.00045
300.00285
300.00461
300.00529
299.9946
299.99416
299.98423
299.98348
299.9829
299.97747
299.97588
299.97594
299.97664
299.97655
299.98002
299.98463
299.98463
299.97957
299.97537
299.97219
299.9726
299.97405
299.9737
299.97349
299.97189
299.97546
299.98012
299.98042
299.98538
299.98563
299.98681
299.98633
299.99146
299.99764
299.99907
300.00461
300.01102
300.01583
300.00892
300.01106
300.00634
300.01296
300.01834
300.02567
300.02238
300.01901
300.01542
300.02159
300.02652
300.01688
300.01109
300.00318
300.00052
300.00379
300.00734
299.99754
299.99515
299.99321
299.99489
299.99262
299.99388
300.0006
300.00392
300.00201
300.00596
300.01432
300.02136
300.03119
300.03599
300.02553
300.01726
300.00861
299.9997
299.99745
300.00074
300.01123
300.01504
300.00401
300.0069
300.00163
299.99786
299.99651
299.98936
299.98809
299.98723
299.98156
299.98099
299.98083
299.9757
299.97681
299.97333
299.97171
299.96925
299.96959
299.97009
299.97072
299.96823
299.97195
299.97715
299.97835
299.98372
299.98351
299.98457
299.98467
299.97872
299.97743
299.9715
299.97377
299.97378
299.97934
299.9859
299.98606
299.97807
299.97911
299.98023
299.98742
299.98802
299.98865
299.9861
299.98432
299.98321
299.9917
300.00073
300.00399
299.99311
299.99574
299.99391
300.00398
300.01404
300.02021
300.03244
300.04278
300.02832
300.0213
300.02942
300.03845
300.05631
300.07025
300.05287
300.03991
300.02692
300.01904
300.02481
300.03496
300.0495
300.06627
300.04905
300.03742
300.05076
300.06737
300.09012
300.11375
300.08128
300.05942
300.04461
300.03132
300.03759
300.05441
300.07034
300.09833
300.08061
300.06405
300.09081
300.11979
300.14478
300.16949
300.11139
300.07821
300.06305
300.04298
300.02905
300.01972
300.01282
300.00754
300.01424
300.02012
300.02154
300.01534
300.00853
300.01405
300.00661
300.00549
300.00166
299.99478
299.99553
300.00255
300.00291
300.00895
300.01581
300.02787
300.03721
300.05918
300.06231
300.04957
300.04718
300.02666
300.036
300.05986
300.09583
300.10094
300.14373
300.1834
300.17128
300.09005
300.08379
300.15163
300.16879
300.13791
300.08348
300.05384
300.03274
300.05047
300.02744
300.01853
300.02315
300.04067
300.03278
300.0443
300.06681
300.11143
300.10241
300.08545
300.11524
300.06925
300.0543
300.03616
300.04156
300.04736
300.05263
300.05715
300.05962
300.0603
300.05875
300.04212
300.03942
300.02811
300.02997
300.0214
300.03143
300.02053
300.01829
300.01083
300.01238
300.003
299.99882
299.99125
299.99046
299.98894
299.98822
299.98223
299.98256
299.98167
299.97609
299.97707
299.9733
299.97168
299.97177
299.97334
299.97742
299.97657
299.97513
299.9745
299.97402
299.97141
299.9713
299.96627
299.96719
299.96322
299.96499
299.96935
299.97558
299.97352
299.9828
299.9839
299.97309
299.97561
299.96837
299.9641
299.96592
299.96074
299.95782
299.95056
299.95526
299.96159
299.97096
299.98237
299.995
300.00819
300.0137
299.99764
300.00129
299.99815
300.0134
300.00809
300.01343
300.00802
299.99687
299.99954
300.00479
300.00068
300.01292
300.02029
300.03038
300.02055
300.00302
300.0074
300.02971
300.02027
300.02957
300.02126
300.04039
300.05434
300.06961
300.05229
300.07357
300.10375
300.12135
300.21674
300.18518
300.16234
300.25624
300.15718
300.18039
300.31196
300.50812
300.26208
300.26942
300.33421
300.27723
300.58522
300.63747
300.47717
300.96459
300.45373
300.2537
300.25059
300.37314
300.48933
300.52947
300.27727
300.32377
300.56372
301.773
301.65404
300.94206
301.70118
301.87184
303.08361
302.80177
302.73016
301.70359
300.56042
300.2631
300.17549
300.09995
300.06288
300.03796
300.02939
300.02639
300.03495
300.05739
300.04591
300.05137
300.09147
300.08018
300.09052
300.15665
300.14201
300.16856
300.13098
300.09232
300.06495
300.04732
300.034
300.02483
300.0178
300.01123
300.01051
300.01704
300.02382
300.01662
300.01755
300.0259
300.02458
300.03264
300.04529
300.03523
300.03717
300.02663
300.01523
300.00773
300.00236
299.9982
299.99764
300.00453
300.00926
300.00156
300.00015
299.99676
300.00349
300.00936
300.01587
300.01386
300.00754
300.01258
300.01489
300.02214
300.01949
300.02679
300.03033
300.02211
300.01887
300.02699
300.03163
300.04198
300.03676
300.03152
300.02306
300.01673
300.01189
300.02109
300.03018
300.04546
300.02367
300.01536
300.02677
300.03638
300.04893
300.03762
300.05614
300.07481
300.09886
300.12193
300.09944
300.06085
300.04367
300.06775
300.08519
300.06069
300.04141
300.02829
300.01768
300.01006
300.0046
299.99699
299.99745
299.99302
299.99028
299.985
299.98768
299.99046
299.99098
299.99544
299.99672
300.00106
300.00419
300.01221
300.00196
299.99787
299.99706
299.99918
300.00361
300.00042
300.00639
300.01182
300.0036
300.0045
300.00966
300.01779
300.01088
300.0199
300.02874
300.01471
300.00614
300.02834
300.05563
300.02836
300.01809
300.02904
300.04394
300.02835
300.04071
300.02752
300.01966
300.01064
300.00427
300.01159
300.01713
300.00916
300.01708
300.00868
300.00095
299.99045
299.99705
300.00088
299.99663
299.99405
299.98824
299.98768
299.98938
299.99273
299.99452
299.98789
299.98929
299.98304
299.9839
299.98063
299.98156
299.98294
299.98416
299.98288
299.97928
299.97865
299.97873
299.97882
299.97891
299.97911
299.97939
299.97971
299.98003
299.98027
299.98035
299.98026
299.97995
299.97952
299.97546
299.97513
299.97382
299.97838
299.97918
299.97426
299.97471
299.97574
299.97599
299.97504
299.98027
299.97987
299.97956
299.97853
299.9774
299.97172
299.97233
299.96929
299.96846
299.9757
299.97732
299.97891
299.97026
299.97297
299.97342
299.98008
299.97954
299.97086
299.96739
299.96639
299.96471
299.96351
299.97299
299.97539
299.97206
299.96854
299.95585
299.95765
299.96093
299.97709
299.97809
299.99348
299.99558
300.00364
299.99932
300.02018
300.03906
300.04487
300.06239
300.04076
300.04065
300.05374
300.05073
300.06201
300.08735
300.07285
300.07778
300.06222
300.04452
300.02645
300.02304
300.01322
300.00648
300.01574
300.02461
300.02114
300.01342
300.00767
300.00556
300.00188
299.99539
299.99835
300.00176
300.00437
300.00997
300.00609
300.01676
300.01042
300.00717
300.00323
300.00028
300.00571
300.00348
300.00937
300.01352
300.00718
300.0099
300.01518
300.01154
300.0189
300.02575
300.01691
300.02182
300.01217
300.0022
299.99902
299.99639
299.99409
299.99256
299.99839
300.00086
299.99447
299.99272
299.99131
299.99678
300.0016
300.00728
300.00487
299.99953
300.00213
300.00456
300.0107
300.00781
300.01164
300.01526
300.00813
300.00506
300.00853
300.01242
300.02091
300.01621
300.02188
300.02794
300.03439
300.04219
300.0497
300.05713
300.04519
300.03821
300.05304
300.06397
300.07964
300.06772
300.09121
300.1097
300.1225
300.10855
300.1178
300.18608
300.20246
300.18379
300.16614
300.14343
300.0882
300.05666
300.03741
300.03199
300.01783
300.01182
300.02531
300.03698
300.04769
300.02942
300.03831
300.06438
300.07692
300.07765
300.06493
300.0482
300.03147
300.04684
300.07626
300.1091
300.07155
300.08789
300.09966
300.17402
300.14347
300.11498
300.07764
300.04035
300.02227
299.99412
299.98426
299.9818
299.97148
299.94686
299.95872
299.95864
299.96015
299.95235
299.95672
299.94971
299.95617
299.96788
299.98207
299.98262
299.98333
299.96976
299.96541
299.95094
299.95842
299.95561
299.96262
299.96771
299.97616
299.97337
299.98596
299.98933
299.97467
299.97735
299.9675
299.9601
299.96154
299.95487
299.9521
299.96177
299.95365
299.97083
299.96951
299.98566
299.98501
299.96406
299.96503
299.99079
299.99016
300.01043
300.01768
300.0437
300.06451
300.04359
300.02875
300.01857
300.00532
300.01178
300.02013
300.01039
300.02439
300.03812
300.0598
300.03626
300.02138
300.03489
300.06214
300.09363
300.1254
300.07563
300.04661
300.02946
300.01505
300.02829
300.03404
300.01831
300.00893
299.99717
299.99543
299.993
299.99041
299.98916
299.98136
299.98061
299.98236
299.98258
299.99094
299.99253
299.98376
299.98336
299.98274
299.98316
299.98955
299.98979
299.98448
299.98329
299.98321
299.97731
299.97594
299.97771
299.97341
299.97194
299.97704
299.97739
299.97797
299.97349
299.97208
299.96971
299.96947
299.96922
299.96913
299.96519
299.96557
299.96205
299.96336
299.96475
299.96614
299.96745
299.96854
299.97022
299.97543
299.98077
299.98705
299.99058
299.99532
299.99752
299.99789
299.99763
299.99523
299.99636
299.9928
299.98671
299.98882
299.98333
299.9805
299.9792
299.98281
299.98521
299.9807
299.97951
299.97642
299.97605
299.97457
299.97757
299.97769
299.9746
299.97639
299.97792
299.98074
299.98299
299.98146
299.97896
299.9777
299.98307
299.99028
299.99514
299.98728
299.98889
299.99163
299.99454
299.99113
299.98749
299.985
299.98737
299.98581
299.98322
299.98229
299.98376
299.98627
299.98492
299.98684
299.98766
299.98913
299.99246
299.99081
299.98916
299.98981
299.98817
299.98757
299.99133
299.98922
299.98647
299.98454
299.98559
299.98292
299.98041
299.97834
299.97931
299.97803
299.97937
299.97917
299.98362
299.98917
299.98596
299.98351
299.97973
299.98013
299.9786
299.97833
299.97529
299.97652
299.977
299.97549
299.97739
299.97993
299.98135
299.98363
299.98241
299.98032
299.98137
299.97854
299.97649
299.97452
299.9739
299.97411
299.97375
299.97317
299.97363
299.97215
299.97261
299.97221
299.97164
299.97197
299.97319
299.97375
299.97484
299.97432
299.97321
299.97368
299.97239
299.97112
299.97175
299.97044
299.97109
299.9707
299.96991
299.97035
299.96808
299.96896
299.96882
299.96783
299.96881
299.97053
299.97213
299.97266
299.9715
299.96936
299.96789
299.96935
299.97144
299.97403
299.97354
299.97353
299.97309
299.97159
299.97206
299.97143
299.97288
299.97234
299.97083
299.97107
299.97171
299.97302
299.97403
299.9729
299.97218
299.97328
299.97226
299.97161
299.97308
299.97638
299.98049
299.97644
299.97329
299.97223
299.97537
299.97509
299.97172
299.97381
299.97505
299.97369
299.97425
299.97482
299.97596
299.9743
299.97896
299.97791
299.97788
299.97609
299.97659
299.97616
299.97574
299.97368
299.97406
299.97341
299.97194
299.9705
299.97013
299.9706
299.96967
299.96915
299.96713
299.96834
299.96883
299.97087
299.97001
299.97114
299.96967
299.96801
299.96616
299.96749
299.96665
299.96758
299.96696
299.96703
299.96535
299.96533
299.96182
299.964
299.96445
299.96227
299.96448
299.96686
299.96966
299.97094
299.97355
299.97418
299.97479
299.97536
299.97567
299.97748
299.97733
299.97691
299.97697
299.97488
299.97417
299.97465
299.97933
299.97992
299.97892
299.98094
299.98106
299.97893
299.97904
299.97876
299.98098
299.98128
299.98187
299.98124
299.97873
299.97659
299.97673
299.9767
299.97643
299.97336
299.97283
299.97367
299.97947
299.9793
299.97891
299.98189
299.98278
299.97978
299.9793
299.97982
299.9793
299.97892
299.97983
299.98169
299.98427
299.99118
299.99571
299.99664
299.99192
299.9895
299.98559
299.98773
299.98785
299.98698
299.98462
299.98318
299.98379
299.98627
299.98565
299.98449
299.98276
299.98545
299.98504
299.98394
299.98225
299.98255
299.98428
299.98489
299.98434
299.98257
299.98316
299.98404
299.98302
299.98294
299.98591
299.98621
299.98555
299.98664
299.9862
299.98652
299.98541
299.98619
299.98718
299.98824
299.98729
299.98845
299.98739
299.98606
299.98494
299.98593
299.98735
299.98526
299.98392
299.98496
299.98402
299.98263
299.98228
299.98506
299.98567
299.98564
299.98492
299.98437
299.98318
299.98142
299.98006
299.98013
299.98013
299.97992
299.97775
299.97786
299.97813
299.97557
299.97577
299.9757
299.97268
299.97251
299.97309
299.97259
299.97316
299.97149
299.97265
299.97192
299.97082
299.97098
299.97172
299.97237
299.97077
299.97007
299.96927
299.97009
299.97175
299.97131
299.97041
299.9685
299.9695
299.96897
299.97085
299.96975
299.96776
299.96784
299.96867
299.96949
299.97031
299.96875
299.96817
299.96875
299.96783
299.96712
299.96428
299.96577
299.96685
299.9691
299.97037
299.96951
299.97074
299.96997
299.97127
299.97015
299.96944
299.97054
299.96916
299.96757
299.96857
299.96668
299.96774
299.96553
299.96805
299.96686
299.96407
299.9627
299.96605
299.96695
299.96617
299.965
299.96108
299.9625
299.96559
299.96452
299.96707
299.96884
299.97058
299.97418
299.97878
299.98145
299.97554
299.97645
299.97943
299.97751
299.97678
299.97871
299.97815
299.97481
299.97347
299.97418
299.97467
299.97147
299.97102
299.96978
299.97186
299.97271
299.97113
299.97173
299.97243
299.97302
299.97528
299.97575
299.97541
299.97503
299.97257
299.97198
299.97505
299.97536
299.97547
299.97558
299.97865
299.97818
299.98118
299.98044
299.98074
299.9817
299.98301
299.98208
299.97871
299.97581
299.97229
299.96996
299.96885
299.96552
299.96423
299.96381
299.96664
299.96479
299.96475
299.9618
299.9614
299.95733
299.96124
299.96188
299.95854
299.95758
299.95227
299.95395
299.95826
299.96143
299.96397
299.96576
299.96915
299.97047
299.9682
299.96655
299.96791
299.96615
299.96753
299.96883
299.97205
299.97581
299.97624
299.97616
299.97181
299.97161
299.97137
299.97185
299.97215
299.97652
299.97641
299.97682
299.97299
299.97237
299.97707
299.98142
299.9805
299.98398
299.98265
299.98386
299.97998
299.98091
299.97961
299.98351
299.9847
299.98059
299.97947
299.98003
299.97897
299.97823
299.97775
299.97746
299.97979
299.98022
299.98031
299.97969
299.97714
299.97761
299.97826
299.98143
299.9811
299.98235
299.98298
299.97921
299.97525
299.97136
299.97202
299.9715
299.96768
299.96456
299.96277
299.96277
299.9584
299.95896
299.95568
299.96056
299.96059
299.95501
299.94756
299.95281
299.95418
299.94831
299.94571
299.94827
299.94092
299.93271
299.94557
299.94056
299.92389
299.94193
299.94593
299.93311
299.94151
299.9601
299.96454
299.98232
300.00164
300.00778
300.03163
300.04208
300.01246
300.00581
300.01319
300.04188
300.06893
300.09251
300.12123
300.09597
300.124
300.09442
300.07384
300.10152
300.1311
300.16794
300.21181
300.15639
300.12229
300.09124
300.12346
300.09291
300.12054
300.16051
300.20684
300.1635
300.21624
300.16817
300.11571
300.0914
300.07043
300.04687
300.0181
300.03592
300.04594
300.02397
300.06072
300.07963
300.05749
300.02075
300.03802
300.02708
300.0616
300.08352
300.11099
300.05094
300.03269
300.05573
300.06962
300.14874
300.22566
300.18678
300.14667
300.10806
300.14373
300.20418
300.29378
300.19249
300.22935
300.33286
300.41786
300.41535
300.27581
300.33544
300.45182
300.40811
300.54099
300.59017
300.44524
300.29363
300.25028
300.40371
300.50368
300.31253
300.37846
300.27572
300.37075
300.28195
300.21613
300.15778
300.13054
300.1787
300.26851
300.18445
300.21075
300.30919
300.41913
300.37689
300.23894
300.30509
300.47568
300.5582
300.79726
300.5617
300.39602
300.26165
300.25203
300.14967
300.09609
300.10598
300.06864
300.04654
300.03292
300.05232
300.08639
300.06417
300.05238
300.09584
300.12058
300.14811
300.16938
300.19037
300.12138
300.08437
300.08648
300.07057
300.04797
300.03249
300.02222
300.01466
300.02218
300.02216
300.0158
300.00891
300.01461
300.00708
300.00714
299.99927
299.99583
299.99577
300.00289
300.00247
299.99407
299.98987
299.99018
299.99814
299.99722
299.99009
299.98212
299.98144
299.97726
299.97598
299.97591
299.97731
299.98318
299.98414
299.98342
299.98296
299.98929
299.99278
299.99111
299.98838
299.99572
299.99432
299.98961
299.99201
299.98335
299.98258
299.98269
299.97787
299.97748
299.97587
299.97599
299.98263
299.98193
299.98935
299.98764
299.98691
299.98895
299.99284
299.99767
299.99992
299.99705
300.00494
300.01455
300.00592
300.01251
300.00537
300.00206
299.99881
300.00318
300.00874
300.01557
300.02173
300.03429
300.03524
300.02395
300.01307
300.00747
300.00661
300.02618
300.0163
300.02652
300.03928
300.05186
300.06702
300.07656
300.0599
300.04115
300.05366
300.03739
300.02715
300.03609
300.01877
300.00804
299.99661
300.00155
299.99525
299.99014
299.98927
299.98611
299.98097
299.98273
299.97936
299.97843
299.97631
299.97685
299.98162
299.98766
299.99546
299.99774
300.0054
300.00736
300.00948
300.01116
300.01297
300.01425
300.01534
300.00845
300.01393
300.0215
300.02009
300.01271
300.00746
300.00161
299.99465
299.9954
299.99863
299.99919
300.00341
300.0036
300.01309
300.02145
300.00971
300.00924
300.02103
300.01292
300.02209
300.03074
300.03083
300.04324
300.04297
300.03216
300.03056
300.02108
300.0298
300.04148
300.03853
300.02787
300.01935
300.02799
300.01714
300.0195
300.01198
300.00646
300.00536
299.99769
300.00123
300.00257
300.00784
300.00583
299.99462
299.99617
299.99736
299.9978
299.99416
299.99367
299.9846
299.98393
299.98419
299.98332
299.98327
299.98976
299.99154
299.99161
299.98414
299.97753
299.97756
299.97807
299.9735
299.97214
299.9721
299.97345
299.97805