/*--------------------------------*- C++ -*----------------------------------*\
  =========                 |
  \\      /  F ield         | OpenFOAM: The Open Source CFD Toolbox
   \\    /   O peration     | Website:  https://openfoam.org
    \\  /    A nd           | Version:  7
     \\/     M anipulation  |
\*---------------------------------------------------------------------------*/
FoamFile
{
    version     2.0;
    format      ascii;
    class       volVectorField;
    location    "280";
    object      U;
}
// * * * * * * * * * * * * * * * * * * * * * * * * * * * * * * * * * * * * * //

dimensions      [0 1 -1 0 0 0 0];

internalField   nonuniform List<vector> 
25278
(
(120.02653 0.0085629587 0.0084128432)
(120.02024 -0.0018128554 -0.016212174)
(120.01811 -0.0017024451 -0.0064862418)
(120.01893 -0.005979476 -0.0046433041)
(119.99561 -0.020505427 -0.0088810026)
(120.02298 -0.018820287 -0.0061662781)
(120.03159 0.0081481199 0.0020150263)
(120.0272 0.008870976 0.0071138489)
(120.02907 0.0035663606 0.0090036382)
(120.04044 0.0070036688 0.0072780335)
(120.03557 0.0046531128 0.0044226469)
(120.03008 0.0060790315 0.0041800504)
(120.02587 -0.0041267487 -0.0068302421)
(120.01414 -0.011649506 -0.015006908)
(119.89761 -0.03954697 -0.067402987)
(120.01804 0.00088995232 -0.0075732156)
(120.01981 0.000797115 -0.016341705)
(119.93568 -0.050179732 -0.087666479)
(119.87305 -0.016546742 -0.12158205)
(119.97033 -0.021589987 -0.10799548)
(120.01111 -0.0063068964 -0.052270843)
(120.01482 -0.015785337 -0.041736205)
(120.01588 -0.018242921 -0.029012267)
(120.03381 -0.0095857336 -0.015626537)
(120.05446 -0.020486736 -0.026460915)
(120.03509 -0.013741328 -0.014537287)
(120.01689 -0.026749617 -0.024406283)
(120.01907 -0.041046867 -0.04820315)
(119.99721 -0.037181894 -0.070150646)
(120.02798 -0.035781025 -0.067485482)
(120.03012 -0.035452204 -0.086907483)
(119.98643 -0.036447524 -0.09556743)
(119.96306 -0.081152874 -0.15208904)
(119.98531 -0.074884407 -0.10438004)
(120.03575 -0.066914137 -0.1031006)
(120.01869 -0.062098705 -0.12369645)
(120.04403 -0.058001748 -0.11846283)
(120.04104 -0.056290906 -0.14110596)
(120.0086 -0.058902378 -0.14822995)
(119.99124 -0.091081302 -0.18864328)
(120.00574 -0.092771365 -0.15203189)
(120.04278 -0.086446371 -0.14819374)
(120.03551 -0.085633345 -0.17971283)
(120.0827 -0.07572394 -0.15675747)
(120.07383 -0.047386831 -0.12175572)
(120.06869 -0.024079984 -0.063472979)
(120.04149 -0.006274112 -0.023449275)
(120.04821 -0.0047271094 -0.030312923)
(120.07195 -0.016192505 -0.076401335)
(120.02133 -0.023168825 -0.10313716)
(120.01337 -0.0066673574 -0.11072938)
(119.95731 -0.0053995296 -0.11192976)
(119.88579 -0.014845288 -0.20039729)
(119.92419 -0.056176266 -0.19570195)
(119.99624 -0.049956781 -0.16292164)
(120.03218 -0.048780608 -0.15913633)
(120.02289 -0.036388745 -0.17666249)
(119.98162 -0.034752612 -0.17995518)
(119.94514 -0.061137082 -0.24085856)
(119.9696 -0.081680287 -0.21441796)
(120.01754 -0.078971455 -0.21189466)
(120.00116 -0.062045306 -0.23766489)
(119.97825 -0.03892441 -0.25388612)
(120.01211 -0.021733134 -0.18561514)
(119.96897 -0.019953306 -0.1831089)
(119.96128 -0.0041642181 -0.18744916)
(120.00624 -0.0049362943 -0.19072794)
(119.96783 -0.010836057 -0.26083397)
(119.90579 -0.010828021 -0.25228805)
(119.91951 -0.036403064 -0.24614996)
(119.82561 -0.056921828 -0.31833503)
(119.87465 -0.09192913 -0.31079279)
(119.91798 -0.11873485 -0.26843425)
(119.95336 -0.1306352 -0.23096425)
(119.98179 -0.1228839 -0.17785716)
(120.02296 -0.11938763 -0.13108456)
(120.0366 -0.096739791 -0.080353336)
(120.02947 -0.06461141 -0.048197966)
(120.017 -0.043076501 -0.025535765)
(119.98386 -0.043990718 -0.028673234)
(119.96107 -0.036252869 -0.024551685)
(119.89868 -0.066763695 -0.051684882)
(119.93695 -0.086047424 -0.063524659)
(119.87566 -0.13643886 -0.034941176)
(119.97175 -0.058214646 -0.017784761)
(119.94276 -0.046025964 -0.014235928)
(119.83053 -0.10310771 -0.02616001)
(119.59469 -0.15533578 -0.07577055)
(119.7147 -0.10814309 -0.096572951)
(119.82079 -0.075687997 -0.082770419)
(119.83909 -0.09305172 -0.10091965)
(119.73158 -0.10611781 -0.1270756)
(119.71255 -0.085572923 -0.10847076)
(119.51878 -0.14903053 -0.15426836)
(119.54829 -0.16676815 -0.17366768)
(119.73442 -0.12550547 -0.11812282)
(119.76818 -0.14342396 -0.13052493)
(119.8642 -0.099291588 -0.10795373)
(119.89562 -0.11888322 -0.12870848)
(119.80209 -0.14543426 -0.18168061)
(119.76528 -0.11765791 -0.14617174)
(119.57933 -0.2010199 -0.20915416)
(119.62751 -0.24288612 -0.25100004)
(119.80538 -0.17728468 -0.15901566)
(119.6975 -0.26327387 -0.12938496)
(119.657 -0.2090521 -0.10237572)
(119.61878 -0.17978439 -0.092618707)
(119.23013 -0.30861799 -0.15195058)
(119.18994 -0.26777945 -0.13815387)
(118.82444 -0.2905054 -0.069530603)
(119.47814 -0.14864811 -0.029378856)
(119.49848 -0.16064322 -0.036606576)
(118.85575 -0.32092008 -0.080351987)
(118.86678 -0.39857456 -0.10482081)
(119.27118 -0.37925228 -0.17478172)
(119.3397 -0.46021689 -0.22561662)
(118.88698 -0.50827107 -0.15623746)
(119.56928 -0.24997145 -0.058974395)
(119.53778 -0.1854138 -0.041833736)
(119.5218 -0.20645948 0.010820432)
(119.86959 -0.15593892 0.016126081)
(119.97178 -0.065335462 0.0035430893)
(119.99642 -0.024646325 0.0024651586)
(119.67588 -0.11966381 0.13344748)
(119.465 -0.19664978 0.1793803)
(119.12695 -0.3277564 0.14755711)
(118.78924 -0.32453167 0.038188939)
(119.46374 -0.16490869 0.0061917695)
(119.82231 -0.12049694 0.00911894)
(119.94125 -0.053206572 0.0010207895)
(119.95929 -0.048596369 0.020907358)
(119.9844 -0.056218354 0.024977395)
(119.93067 -0.11156008 0.066805048)
(119.88841 -0.090986513 0.055090571)
(119.68373 -0.1448695 0.10744995)
(119.56395 -0.19294866 0.073049317)
(119.58682 -0.22219862 0.090444854)
(119.48316 -0.17945178 0.0084222214)
(118.81627 -0.36245949 0.043207778)
(119.16379 -0.37579933 0.16323392)
(119.20101 -0.45475049 0.1919944)
(118.82215 -0.44953516 0.060938856)
(118.8374 -0.57086534 0.1044644)
(119.55249 -0.27746299 0.022771113)
(119.6643 -0.31496387 0.12953819)
(119.62564 -0.25456292 0.10102746)
(119.73865 -0.18617871 0.14385181)
(119.7029 -0.16591706 0.13043767)
(119.49275 -0.2192028 0.2002576)
(119.69491 -0.14327775 0.15409576)
(119.88478 -0.059926866 0.084776845)
(119.79845 -0.10589322 0.097730595)
(119.81785 -0.12560566 0.11781587)
(119.84541 -0.13198855 0.12523193)
(119.92861 -0.070404475 0.10523058)
(119.87907 -0.15380676 0.1479747)
(119.77668 -0.22481083 0.17492758)
(119.56994 -0.30486688 0.28485895)
(119.26446 -0.54363926 0.24887398)
(118.30163 -0.65200483 0.60864927)
(116.06222 -0.58676607 0.65222705)
(116.20894 -0.51940819 -0.77375611)
(118.47534 -0.52778151 -0.5412948)
(119.31685 -0.2190515 -0.45984433)
(119.68596 -0.11333792 -0.2579856)
(119.64773 -0.087103033 -0.2008582)
(119.52213 -0.015879995 -0.1540314)
(119.54991 -0.029160549 -0.22330376)
(118.81341 -0.11310397 -0.47410466)
(118.80625 -0.065967435 -0.35907514)
(119.25211 -0.16743169 -0.37516214)
(118.32285 -0.44042827 -0.45008916)
(116.10463 -0.46552734 -0.33095278)
(115.96037 -0.65722071 -0.48078468)
(103.85513 -1.6553342 -1.5306767)
(105.64953 -1.2287046 -1.1241339)
(116.28934 -0.38490893 -0.57245116)
(116.16082 -0.44957268 0.46950563)
(105.67819 -1.440107 1.2622845)
(103.85188 -1.9476499 1.667079)
(115.61745 -0.87604097 0.48600335)
(115.81321 -0.66781436 0.36969684)
(118.1685 -0.55071759 0.50286161)
(119.15629 -0.21243376 0.43027537)
(119.52226 -0.25906193 0.23886141)
(119.73085 -0.15539153 0.17463968)
(119.76858 -0.18553945 0.21308634)
(119.6353 -0.14386009 0.30352807)
(119.218 -0.26741664 0.51639504)
(118.66501 -0.17096598 0.54254191)
(118.67663 -0.11750288 0.4303104)
(119.46062 -0.041319801 0.19863772)
(119.85575 -0.031547544 0.1507515)
(119.59759 -0.11653374 0.24314237)
(119.48404 -0.057246946 0.26728089)
(119.59674 -0.071457978 0.34940612)
(118.73602 -0.25163954 0.69693748)
(115.43958 -1.1160499 0.8811139)
(101.58287 -2.6758711 2.212867)
(101.59859 -2.2447457 -2.122477)
(115.86179 -0.9115196 -0.85058578)
(118.89497 -0.18778037 -0.62829008)
(119.65765 -0.044046923 -0.29894721)
(119.78251 -0.12769627 -0.2987493)
(119.88221 -0.15298531 -0.20516931)
(119.95204 -0.11837173 -0.12909161)
(119.98601 -0.097967202 -0.087528904)
(119.99848 -0.067248384 -0.049359061)
(119.98812 -0.097484618 -0.051759527)
(120.0325 -0.08840575 -0.051345889)
(120.02043 -0.12151262 -0.078815064)
(119.96491 -0.15083205 -0.098159539)
(120.0071 -0.14782651 -0.10952296)
(120.04393 -0.14386685 -0.10393732)
(120.04582 -0.11633251 -0.075123155)
(120.04326 -0.14238598 -0.075259767)
(120.01068 -0.14956652 -0.077416542)
(119.99335 -0.18776596 -0.11005528)
(120.03721 -0.17856925 -0.10540196)
(120.08432 -0.15559529 -0.096518469)
(120.08351 -0.1245446 -0.091969619)
(120.08506 -0.068682258 -0.059279991)
(120.05689 -0.046465903 -0.035070303)
(120.0447 -0.024396744 -0.014041333)
(120.06938 -0.017986191 -0.014736469)
(120.1098 -0.025211748 -0.026915905)
(120.11432 -0.048786555 -0.036716713)
(120.09375 -0.029528799 -0.019489331)
(120.0723 -0.06482901 -0.039096191)
(120.073 -0.099596824 -0.064952086)
(120.09897 -0.07463672 -0.051184029)
(120.12208 -0.095656394 -0.073899552)
(120.13161 -0.12224416 -0.080047918)
(120.10863 -0.095286315 -0.054906276)
(120.0764 -0.12315786 -0.066496846)
(120.07393 -0.14446116 -0.063028793)
(120.07707 -0.084448403 -0.033117502)
(120.05482 -0.038025661 -0.013353284)
(120.01519 -0.061732171 -0.017362052)
(119.973 -0.11614585 -0.038367334)
(120.02497 -0.11174149 -0.040765733)
(119.99922 -0.16859174 -0.069790012)
(119.92773 -0.20356537 -0.076121673)
(119.97302 -0.2185576 -0.10242798)
(120.02036 -0.21608739 -0.10082727)
(120.03521 -0.16497878 -0.069266348)
(120.0267 -0.18879484 -0.058103053)
(119.98526 -0.19207889 -0.055851582)
(119.95015 -0.25144829 -0.084079515)
(120.00523 -0.2480232 -0.085960304)
(119.9834 -0.27420354 -0.063942892)
(120.01679 -0.20497015 -0.043504969)
(120.01831 -0.13002739 -0.023715104)
(119.96001 -0.13147755 -0.021924462)
(119.89022 -0.22515669 -0.037946876)
(119.97345 -0.20215278 -0.041251507)
(119.92559 -0.26636298 -0.060546569)
(119.91114 -0.2852056 -0.034452589)
(119.9653 -0.21680617 -0.023707185)
(120.01116 -0.22014929 -0.024968655)
(119.97288 -0.29322039 -0.035319769)
(120.04316 -0.27721404 -0.03553504)
(120.05229 -0.25612048 -0.064335672)
(120.06625 -0.22675099 -0.083649727)
(120.07721 -0.19371364 -0.095382353)
(120.13469 -0.15523072 -0.081043771)
(120.11186 -0.11378448 -0.052771549)
(120.1139 -0.13571907 -0.047762002)
(120.06979 -0.16782476 -0.053988534)
(120.06437 -0.18499093 -0.041798018)
(120.07963 -0.10291843 -0.021510015)
(120.1192 -0.052319246 -0.015638207)
(120.10768 -0.039331532 -0.017319178)
(120.13766 -0.074508028 -0.038478486)
(120.1296 -0.0614795 -0.039413771)
(120.13902 -0.019611099 -0.020622229)
(120.11994 -0.013090346 -0.016292039)
(120.15645 -0.016492407 -0.023213027)
(120.14653 -0.060017827 -0.051243482)
(120.16502 -0.07614108 -0.054894918)
(120.18088 -0.026714331 -0.028286134)
(120.20139 -0.037960795 -0.032082177)
(120.15084 -0.025637924 -0.020547052)
(120.16355 -0.035376519 -0.023346235)
(120.14549 -0.091578531 -0.037503373)
(120.18582 -0.12474464 -0.058156054)
(120.17807 -0.099634166 -0.05914933)
(120.18547 -0.13928424 -0.087539334)
(120.18122 -0.1218801 -0.084483093)
(120.17158 -0.10480674 -0.080182533)
(120.1723 -0.071170237 -0.065173536)
(120.15404 -0.026702444 -0.039120649)
(120.10801 -0.014716085 -0.031105373)
(120.06687 -0.0046763301 -0.020542622)
(120.05493 -0.023684304 -0.049213712)
(120.08393 -0.04623289 -0.074950474)
(120.07097 -0.047956519 -0.10174175)
(120.09638 -0.034189455 -0.07664624)
(120.10538 -0.035586095 -0.093678079)
(120.1296 -0.058368424 -0.12322505)
(120.12052 -0.055483916 -0.10002607)
(120.08228 -0.07410172 -0.1290349)
(120.08467 -0.10499262 -0.16007507)
(120.10659 -0.088176046 -0.10058891)
(120.13653 -0.079498038 -0.12358136)
(120.12417 -0.091133689 -0.16049591)
(120.09778 -0.10256565 -0.17973692)
(120.06925 -0.1105056 -0.19333323)
(120.01304 -0.13293916 -0.23114339)
(120.03055 -0.12148191 -0.17734956)
(120.01341 -0.17670946 -0.22229088)
(119.947 -0.18104157 -0.21685891)
(119.9065 -0.19487276 -0.28837913)
(119.98689 -0.19461483 -0.2908087)
(119.92507 -0.28745503 -0.35642387)
(119.9775 -0.24212983 -0.25448915)
(120.01434 -0.21242225 -0.19159442)
(120.03166 -0.17029821 -0.13825669)
(119.98322 -0.17120406 -0.13882479)
(119.88516 -0.19968256 -0.16782357)
(119.94829 -0.20762881 -0.19461386)
(119.91074 -0.28217611 -0.2104857)
(119.95634 -0.2276417 -0.14899069)
(120.01522 -0.22727336 -0.15213253)
(119.98984 -0.28381081 -0.21165859)
(119.92843 -0.34678825 -0.30156322)
(119.83339 -0.33425108 -0.27850343)
(119.90116 -0.23308177 -0.24426997)
(119.72387 -0.28896263 -0.29777548)
(119.82892 -0.2653711 -0.34232312)
(119.72426 -0.39258172 -0.40184964)
(119.8527 -0.4127822 -0.42402521)
(119.99275 -0.35171446 -0.36534849)
(120.01422 -0.29838573 -0.34229507)
(120.03555 -0.24154898 -0.30273907)
(120.05021 -0.20121392 -0.2760289)
(120.06117 -0.16092195 -0.24583885)
(120.06599 -0.1351859 -0.22177028)
(120.10104 -0.12510305 -0.20677557)
(120.09771 -0.12861213 -0.23539377)
(120.09631 -0.10374562 -0.20323302)
(120.06201 -0.11113082 -0.21822509)
(120.05871 -0.13884889 -0.25344687)
(120.04972 -0.17212165 -0.28485667)
(120.09391 -0.16366351 -0.26810366)
(120.10045 -0.15196946 -0.23050359)
(120.08493 -0.15686034 -0.20324697)
(120.15867 -0.12276766 -0.16276318)
(120.13717 -0.13609991 -0.20773972)
(120.13235 -0.11176383 -0.18414326)
(120.16342 -0.092811467 -0.1564368)
(120.14987 -0.074421261 -0.13454345)
(120.15576 -0.076932605 -0.1540438)
(120.12596 -0.0919229 -0.1821885)
(120.1322 -0.1143082 -0.21001864)
(120.16737 -0.097258306 -0.18014598)
(120.17758 -0.12541835 -0.20796628)
(120.17389 -0.11398265 -0.17649996)
(120.18693 -0.14369189 -0.20229119)
(120.14261 -0.1701498 -0.23617921)
(120.09857 -0.18844923 -0.26123522)
(120.08982 -0.20030444 -0.30481611)
(120.03686 -0.21339228 -0.32433486)
(120.01458 -0.26238659 -0.35994281)
(120.07573 -0.25252057 -0.34337645)
(120.0895 -0.23103258 -0.28895233)
(120.07187 -0.22658482 -0.24066434)
(120.08547 -0.19248367 -0.17312865)
(120.08546 -0.15260044 -0.12251414)
(120.13733 -0.11599871 -0.098110768)
(120.15892 -0.15096767 -0.14100451)
(120.13784 -0.19989013 -0.15714958)
(120.13316 -0.17824189 -0.13302139)
(120.12535 -0.15646465 -0.11245685)
(120.09906 -0.17571439 -0.12325262)
(120.07073 -0.18925335 -0.13041563)
(120.0674 -0.21607263 -0.1544745)
(120.1021 -0.20098961 -0.14542428)
(120.09914 -0.2315009 -0.15032445)
(120.09782 -0.20128585 -0.12572162)
(120.06383 -0.21620352 -0.13228803)
(120.06073 -0.24957668 -0.1594685)
(120.05219 -0.27943237 -0.19202914)
(120.06275 -0.2385743 -0.17950386)
(120.10161 -0.22299718 -0.17179552)
(120.09977 -0.25164138 -0.20744022)
(120.05197 -0.26695458 -0.21861973)
(120.03993 -0.31692229 -0.23206684)
(120.09185 -0.29701715 -0.22071372)
(120.09561 -0.26245448 -0.18486616)
(120.13724 -0.2365019 -0.16925587)
(120.13319 -0.20617071 -0.13726835)
(120.12725 -0.18037578 -0.11475077)
(120.157 -0.15246196 -0.10075136)
(120.15111 -0.13065924 -0.096594906)
(120.16407 -0.15055808 -0.11524049)
(120.16809 -0.17643516 -0.12153923)
(120.17801 -0.20219236 -0.15010883)
(120.1743 -0.16850098 -0.13656293)
(120.18715 -0.19156973 -0.16622656)
(120.14326 -0.22598728 -0.19068185)
(120.13942 -0.26823664 -0.20327587)
(120.18869 -0.23044624 -0.18088022)
(120.23222 -0.18400643 -0.15043487)
(120.22384 -0.152866 -0.13681927)
(120.2118 -0.091146703 -0.091919515)
(120.23816 -0.019805532 -0.036949124)
(120.18856 -0.015543214 -0.027951966)
(120.19886 -0.042454914 -0.043637775)
(120.18905 -0.071479784 -0.060064125)
(120.2109 -0.08300371 -0.072541583)
(120.18942 -0.1191955 -0.094980499)
(120.19784 -0.13902984 -0.10090966)
(120.22275 -0.10065378 -0.080452088)
(120.20177 -0.086252679 -0.066186052)
(120.21452 -0.051823861 -0.047527337)
(120.22075 -0.013079394 -0.02565311)
(120.20297 -0.0071302658 -0.020267937)
(120.22945 -0.0083374132 -0.024817009)
(120.22368 -0.046800508 -0.051028169)
(120.23902 -0.056384338 -0.055207295)
(120.2474 -0.014957015 -0.031129636)
(120.27576 -0.01451894 -0.035720362)
(120.25333 -0.006906821 -0.027324814)
(120.24598 -0.051820112 -0.05887207)
(120.2303 -0.092357873 -0.08529735)
(120.20427 -0.13435901 -0.11202225)
(120.2144 -0.16108995 -0.12442926)
(120.2445 -0.11498463 -0.098563115)
(120.26902 -0.13134091 -0.1190428)
(120.25549 -0.1055874 -0.10387608)
(120.27564 -0.060083908 -0.070703717)
(120.28503 -0.0071277119 -0.031474125)
(120.30791 -0.014534243 -0.041905815)
(120.29453 -0.07380947 -0.079700525)
(120.26508 -0.065221874 -0.066706326)
(120.28021 -0.081812979 -0.076837592)
(120.2518 -0.070026531 -0.062663467)
(120.22433 -0.061330714 -0.050966329)
(120.20908 -0.10015174 -0.069354449)
(120.23166 -0.12064873 -0.086974032)
(120.20288 -0.163936 -0.10842995)
(120.16859 -0.20570684 -0.12726263)
(120.15838 -0.17304443 -0.10252958)
(120.12503 -0.20306808 -0.11556432)
(120.0921 -0.22567051 -0.12496087)
(120.0558 -0.23902787 -0.13023345)
(119.98458 -0.28173628 -0.14652934)
(119.92373 -0.2696407 -0.13892775)
(119.79381 -0.30214471 -0.14567509)
(119.85853 -0.34001462 -0.2092998)
(119.9376 -0.36505804 -0.21820909)
(119.88334 -0.44483417 -0.19984882)
(119.95397 -0.33307133 -0.12868225)
(119.88406 -0.31845138 -0.11508614)
(119.7885 -0.41580885 -0.18147581)
(119.62192 -0.53612011 -0.25350783)
(119.74432 -0.4170103 -0.28689196)
(119.4689 -0.52801221 -0.30081224)
(119.57731 -0.49357559 -0.44447741)
(119.70648 -0.56866098 -0.48447985)
(119.83531 -0.46311936 -0.32440168)
(119.7315 -0.58991004 -0.31628909)
(119.53498 -0.75439003 -0.51082254)
(119.35814 -0.66938681 -0.43678055)
(119.00233 -0.71543704 -0.4382876)
(119.4525 -0.57935916 -0.20877435)
(119.70565 -0.43921981 -0.13664886)
(119.83773 -0.33671369 -0.082204769)
(119.67719 -0.32375272 -0.073824979)
(119.81096 -0.36525727 -0.046721129)
(119.88888 -0.40346113 -0.051203623)
(119.91118 -0.37246459 -0.094710845)
(119.80315 -0.50786035 -0.15392093)
(119.75879 -0.55867733 -0.079976604)
(119.65147 -0.48877344 -0.076096632)
(119.32972 -0.68176699 -0.12396525)
(118.98308 -0.65369744 -0.23329465)
(118.60648 -0.93596318 -0.32989601)
(118.83572 -1.1646477 -0.33250151)
(119.17857 -0.95225433 -0.50762786)
(119.5583 -0.70075194 -0.26428975)
(119.44871 -0.80162665 -0.1444476)
(119.69933 -0.74470688 -0.15699885)
(119.74556 -0.70255437 -0.21664077)
(119.80065 -0.64057094 -0.25459317)
(119.86329 -0.58901154 -0.28091985)
(119.91327 -0.52224301 -0.29382557)
(119.95475 -0.46605651 -0.29794946)
(119.98862 -0.40268187 -0.28806591)
(120.01825 -0.35085938 -0.27996727)
(120.03737 -0.29215579 -0.25784322)
(120.09081 -0.27748917 -0.2490535)
(120.081 -0.31539115 -0.30002816)
(120.01564 -0.33003596 -0.31330902)
(119.99393 -0.39630422 -0.33838804)
(120.06603 -0.37508463 -0.32479583)
(120.07829 -0.3334119 -0.27196853)
(120.13755 -0.30386188 -0.2508882)
(120.1423 -0.25100789 -0.22792218)
(120.17062 -0.17922416 -0.1956902)
(120.14162 -0.20810701 -0.26348081)
(120.19398 -0.17716669 -0.22678527)
(120.19563 -0.19891438 -0.27366078)
(120.18832 -0.1560282 -0.23895862)
(120.13825 -0.18077701 -0.27645929)
(120.13628 -0.14636752 -0.24229271)
(120.12949 -0.15122813 -0.27771002)
(120.12815 -0.11796203 -0.23915209)
(120.12335 -0.091388318 -0.2020841)
(120.13213 -0.056566067 -0.1501709)
(120.10788 -0.031666127 -0.10751572)
(120.07065 -0.042213362 -0.13845019)
(120.06559 -0.031952746 -0.15551428)
(120.10884 -0.025416765 -0.12281565)
(120.12951 -0.047729251 -0.17451424)
(120.06276 -0.058295481 -0.21574191)
(120.07477 -0.072174831 -0.18918234)
(120.05313 -0.10798893 -0.2385603)
(119.97992 -0.12514825 -0.28101845)
(119.94639 -0.10479841 -0.32604335)
(119.86792 -0.1782418 -0.44334982)
(119.92959 -0.19939938 -0.36861482)
(119.84883 -0.19238341 -0.34239466)
(119.76959 -0.16064518 -0.41301619)
(119.67794 -0.11184911 -0.42368244)
(119.77765 -0.12833354 -0.49559251)
(119.90018 -0.068411292 -0.35464743)
(119.87829 -0.023142264 -0.36910119)
(119.79982 -0.02009969 -0.33073779)
(119.62179 -0.044134303 -0.45331012)
(119.73114 -0.04697258 -0.52552752)
(119.37464 -0.10141954 -0.77362658)
(119.4984 -0.24137344 -0.69838819)
(119.70134 -0.29829855 -0.59558976)
(119.82206 -0.30905844 -0.4710389)
(119.73023 -0.27302281 -0.42283661)
(119.44284 -0.29101719 -0.53203755)
(119.58901 -0.23402534 -0.53936945)
(119.30897 -0.42035996 -0.67797747)
(119.56368 -0.43571123 -0.50244414)
(119.6929 -0.47139283 -0.57990565)
(119.49132 -0.49296464 -0.76496241)
(119.06465 -0.48396231 -0.9604673)
(118.89231 -0.41931677 -0.70787151)
(119.39675 -0.18565895 -0.57017946)
(119.26143 -0.08333842 -0.64917558)
(118.41933 -0.25535218 -0.9090343)
(118.64609 -0.25530905 -1.1445546)
(119.13495 -0.28998236 -1.1047442)
(119.44373 -0.19332101 -0.90426288)
(119.6431 -0.12385747 -0.724367)
(119.78539 -0.08804785 -0.60241437)
(119.87436 -0.059288627 -0.49148015)
(119.93743 -0.043167928 -0.41462473)
(119.97568 -0.029493069 -0.33618319)
(120.03821 -0.010184461 -0.24388994)
(120.05498 -0.0041101145 -0.17155808)
(120.07209 -0.0053855697 -0.085447756)
(120.1075 -0.0017970095 -0.036618238)
(120.10018 -0.002169519 -0.032095609)
(120.08866 -0.0058740077 -0.0282521)
(120.11117 -0.020259526 -0.050725305)
(120.116 -0.00069971805 -0.014914551)
(120.13352 -0.0024633724 -0.017775066)
(120.12544 -0.020496776 -0.059698598)
(120.1622 -0.032698135 -0.076759705)
(120.14436 -0.03289619 -0.06428707)
(120.15334 -0.0052885823 -0.020508474)
(120.17645 -0.0063146232 -0.027006393)
(120.19549 -0.0065509103 -0.031489751)
(120.14389 -0.00053106186 -0.019223863)
(120.13255 -0.017661169 -0.068074278)
(120.13888 -0.015482263 -0.078503771)
(120.15432 -0.0021360787 -0.022233915)
(120.20953 -0.0078993094 -0.0384475)
(120.18124 -0.030206271 -0.11138331)
(120.17453 -0.033681751 -0.093770868)
(120.18382 -0.061184998 -0.13737493)
(120.17977 -0.059884202 -0.12317214)
(120.17014 -0.057553129 -0.10863198)
(120.17115 -0.046036946 -0.078864385)
(120.18647 -0.0086222989 -0.022972969)
(120.19628 -0.020227178 -0.045892394)
(120.18709 -0.036770792 -0.075045557)
(120.19974 -0.040699914 -0.087129271)
(120.22163 -0.053522988 -0.10367841)
(120.20978 -0.048189837 -0.088682284)
(120.18869 -0.071697696 -0.12507981)
(120.19714 -0.075263703 -0.14242357)
(120.21428 -0.097763819 -0.1666797)
(120.20397 -0.088194404 -0.14254441)
(120.21153 -0.072154165 -0.10367308)
(120.23725 -0.015924518 -0.03267643)
(120.24494 -0.032622048 -0.059905955)
(120.22195 -0.026165547 -0.052347355)
(120.22685 0.00034183575 -0.013629879)
(120.19949 0.003126979 -0.010313489)
(120.21664 0.00032013455 -0.013312694)
(120.21164 -0.021686272 -0.052361178)
(120.23714 -0.027311731 -0.058941059)
(120.24427 -0.0027968748 -0.017195252)
(120.27355 -0.0045656056 -0.018960238)
(120.25141 -0.00043571817 -0.014768329)
(120.28385 -0.0026218884 -0.018713498)
(120.27524 -0.042999958 -0.071693701)
(120.25542 -0.077551393 -0.1170136)
(120.2297 -0.05997204 -0.10043864)
(120.24416 -0.069989373 -0.1202247)
(120.26928 -0.088963539 -0.1398275)
(120.23244 -0.12296949 -0.19261091)
(120.22389 -0.1125711 -0.16405699)
(120.2375 -0.13963418 -0.18479611)
(120.24465 -0.10812322 -0.12691592)
(120.28445 -0.024782958 -0.045285554)
(120.29969 -0.051859568 -0.081284732)
(120.27521 -0.096655631 -0.13284187)
(120.29455 -0.11407603 -0.1622089)
(120.24946 -0.15792728 -0.22235936)
(120.26772 -0.19605432 -0.25552512)
(120.25737 -0.17517135 -0.21386425)
(120.20355 -0.22111111 -0.26195455)
(120.1411 -0.25635264 -0.2999689)
(120.07989 -0.28303121 -0.3289168)
(120.06334 -0.30610369 -0.38744159)
(119.99015 -0.3220483 -0.40742735)
(119.95716 -0.38829997 -0.44298265)
(120.03816 -0.37738922 -0.42812512)
(120.06405 -0.33878347 -0.35445438)
(120.04016 -0.41321202 -0.39529957)
(119.95999 -0.43025712 -0.40368204)
(119.91457 -0.47410512 -0.48916444)
(120.01026 -0.45639882 -0.47429639)
(120.10236 -0.42412071 -0.44584004)
(120.12055 -0.34763376 -0.39865928)
(120.13101 -0.27976454 -0.35612763)
(120.13604 -0.22887616 -0.31469575)
(120.12141 -0.24388699 -0.36850061)
(120.12803 -0.19220564 -0.32072671)
(120.07046 -0.2089248 -0.35101522)
(120.07991 -0.16563734 -0.30528676)
(120.08787 -0.13021361 -0.26664463)
(120.08998 -0.10176614 -0.22497249)
(120.08256 -0.098063002 -0.24846681)
(120.04093 -0.10293409 -0.26371106)
(120.03093 -0.13600648 -0.31289757)
(120.0459 -0.13871885 -0.2825774)
(120.03179 -0.17222795 -0.31905533)
(120.01082 -0.17167691 -0.35817782)
(120.06466 -0.166742 -0.34255007)
(120.078 -0.12822259 -0.29436936)
(120.12095 -0.11688703 -0.26617294)
(120.1193 -0.088502473 -0.2245788)
(120.15695 -0.076153257 -0.1921747)
(120.15687 -0.077183329 -0.1716551)
(120.16767 -0.10123527 -0.20621319)
(120.16556 -0.10195443 -0.23106321)
(120.15933 -0.1001815 -0.25952582)
(120.15367 -0.072833563 -0.21063071)
(120.11256 -0.083352069 -0.24424386)
(120.07258 -0.090912823 -0.26882719)
(120.02966 -0.09436037 -0.28193633)
(120.0136 -0.081339142 -0.30336057)
(120.06091 -0.080149969 -0.28969629)
(120.04692 -0.1093063 -0.35035204)
(120.06228 -0.12135186 -0.32484275)
(120.01365 -0.12695231 -0.33994969)
(119.99307 -0.11260635 -0.36680248)
(119.95711 -0.1466468 -0.42747173)
(119.98617 -0.16215238 -0.39137265)
(120.04173 -0.15988561 -0.38047154)
(120.01818 -0.14819733 -0.41660751)
(119.985 -0.19961333 -0.49684387)
(120.01788 -0.21048909 -0.4480806)
(120.04995 -0.21439251 -0.39858924)
(119.98477 -0.22397685 -0.41754373)
(120.01321 -0.21924563 -0.36644725)
(119.98171 -0.26962203 -0.41036139)
(120.04906 -0.26333762 -0.39889094)
(120.0195 -0.27497245 -0.45835574)
(119.94302 -0.27855244 -0.47236674)
(119.89743 -0.35894855 -0.54496967)
(119.94832 -0.33918082 -0.46755094)
(120.02828 -0.32811064 -0.45387152)
(119.99046 -0.3489002 -0.52652831)
(120.07991 -0.3294149 -0.49307646)
(120.09847 -0.2575445 -0.42736501)
(120.11155 -0.19937343 -0.3676161)
(120.1185 -0.15351419 -0.31418194)
(120.17178 -0.13526085 -0.27392587)
(120.17655 -0.13105014 -0.24006528)
(120.18512 -0.16789227 -0.2793119)
(120.17683 -0.17725395 -0.32319793)
(120.16107 -0.18171118 -0.37219056)
(120.16153 -0.13537018 -0.3106991)
(120.10237 -0.15059439 -0.3522915)
(120.11032 -0.11296552 -0.29609986)
(120.09694 -0.10281105 -0.3227248)
(120.10374 -0.073983826 -0.26538922)
(120.14868 -0.066172825 -0.23127092)
(120.15082 -0.093111563 -0.28563789)
(120.14742 -0.12997395 -0.34831853)
(120.08217 -0.14139206 -0.39010956)
(120.05792 -0.19318502 -0.46934538)
(120.08809 -0.20009912 -0.41774039)
(120.0648 -0.26421845 -0.49224559)
(119.97359 -0.27515593 -0.52165074)
(119.89483 -0.27344816 -0.52676524)
(119.95074 -0.21612762 -0.46022993)
(119.90914 -0.20126362 -0.5100946)
(119.86087 -0.17404747 -0.54435841)
(119.9234 -0.123647 -0.45249298)
(119.97028 -0.09361137 -0.38652014)
(119.99849 -0.066701975 -0.31599977)
(120.04764 -0.037840094 -0.23510128)
(120.05922 -0.019726792 -0.16555722)
(120.10656 -0.015663277 -0.13281403)
(120.10473 -0.0034481833 -0.1393651)
(120.11655 -0.0084306935 -0.20523619)
(120.12224 -0.0320527 -0.19481743)
(120.18252 -0.021272312 -0.12805912)
(120.14049 -0.0089417423 -0.086099227)
(120.15896 -0.00011320089 -0.025203812)
(120.16185 -5.0291575e-05 -0.028126936)
(120.14137 -0.0022161862 -0.091523132)
(120.18133 -0.0052046007 -0.13785874)
(120.22058 -0.00088944323 -0.053105191)
(120.21771 -0.0062274146 -0.046905799)
(120.24573 -0.023964534 -0.097948226)
(120.24364 -0.026999427 -0.087533352)
(120.23744 -0.026057908 -0.075587066)
(120.23169 -0.025715764 -0.067111604)
(120.22107 -0.022956017 -0.058226845)
(120.2068 -0.041909129 -0.097585466)
(120.21436 -0.043553739 -0.11114205)
(120.18775 -0.061674194 -0.15492114)
(120.20442 -0.082863699 -0.18525959)
(120.20211 -0.080699179 -0.16375577)
(120.23057 -0.057566206 -0.11967869)
(120.23751 -0.060817598 -0.13671885)
(120.26049 -0.035686888 -0.079243338)
(120.24973 -0.031921568 -0.06819259)
(120.25937 -0.0051917578 -0.019574018)
(120.22788 -0.00076997744 -0.014417084)
(120.24064 -0.0040428514 -0.017654693)
(120.27294 -0.0093413981 -0.024389053)
(120.28401 -0.013548104 -0.031128498)
(120.24853 -0.0058454565 -0.021171619)
(120.25728 -0.0088874058 -0.027774836)
(120.29318 -0.017612884 -0.041007497)
(120.27399 -0.040615215 -0.1092781)
(120.26837 -0.039188552 -0.093224697)
(120.24113 -0.062775047 -0.15717602)
(120.2175 -0.043179203 -0.1238392)
(120.18749 -0.059657798 -0.17094599)
(120.18644 -0.05544395 -0.18978645)
(120.22032 -0.04156516 -0.13974796)
(120.24235 -0.06168416 -0.17833563)
(120.1993 -0.079146392 -0.23488808)
(120.20319 -0.083356996 -0.21040131)
(120.21727 -0.11423595 -0.25617057)
(120.22062 -0.11131071 -0.22296807)
(120.21935 -0.1053838 -0.19347614)
(120.25454 -0.076189666 -0.14057212)
(120.26194 -0.082839098 -0.1639526)
(120.28884 -0.1111216 -0.19609587)
(120.28096 -0.099630708 -0.1655425)
(120.23719 -0.13630187 -0.22673605)
(120.23684 -0.14747789 -0.2652457)
(120.23042 -0.15528293 -0.31002316)
(120.29174 -0.12123146 -0.23350254)
(120.2653 -0.087835278 -0.1914101)
(120.2648 -0.089718517 -0.22248486)
(120.20969 -0.11264929 -0.29170916)
(120.21742 -0.15851976 -0.35979248)
(120.13921 -0.17991863 -0.42419248)
(120.11007 -0.16536389 -0.48029726)
(120.12888 -0.11605296 -0.38687836)
(120.13933 -0.081509902 -0.31339378)
(120.14217 -0.056603165 -0.24827041)
(120.0941 -0.062474229 -0.28221132)
(120.04776 -0.066435 -0.30598226)
(120.03627 -0.049063324 -0.32040003)
(119.9842 -0.048801785 -0.33011348)
(119.95113 -0.070728004 -0.40467124)
(120.01065 -0.069838655 -0.39403808)
(120.02604 -0.09212376 -0.37586717)
(120.08142 -0.088573456 -0.34977375)
(120.06701 -0.067165448 -0.3701417)
(120.08441 -0.045851549 -0.29763556)
(120.13515 -0.042206849 -0.26437839)
(120.12839 -0.062658953 -0.33468514)
(120.11863 -0.039309896 -0.3520039)
(120.12978 -0.02580302 -0.27433735)
(120.07749 -0.028082728 -0.30680894)
(120.02789 -0.029483621 -0.32872211)
(120.0231 -0.0068164464 -0.33177777)
(119.97002 -0.0068514325 -0.33888667)
(119.92977 -0.011997678 -0.41847968)
(119.99022 -0.011620569 -0.41198594)
(119.99662 -0.042775505 -0.40785112)
(120.05526 -0.041883243 -0.38584776)
(120.04909 -0.010651073 -0.39104386)
(120.07324 -0.0058010029 -0.31045144)
(120.12634 -0.0050817714 -0.2784954)