/*--------------------------------*- C++ -*----------------------------------*\
  =========                 |
  \\      /  F ield         | OpenFOAM: The Open Source CFD Toolbox
   \\    /   O peration     | Website:  https://openfoam.org
    \\  /    A nd           | Version:  7
     \\/     M anipulation  |
\*---------------------------------------------------------------------------*/
FoamFile
{
    version     2.0;
    format      ascii;
    class       volScalarField;
    location    "160";
    object      omega;
}
// * * * * * * * * * * * * * * * * * * * * * * * * * * * * * * * * * * * * * //

dimensions      [0 0 -1 0 0 0 0];

internalField   nonuniform List<scalar> 
24866
(
434.20721
442.17439
443.51242
505.56773
565.84453
564.66482
560.06415
566.03452
566.72818
559.48512
562.59959
562.63781
559.5849
566.79205
565.96694
560.29262
564.13953
566.09636
564.31665
562.74008
555.39845
567.91585
581.73025
575.30954
561.73229
551.89268
563.17228
576.25423
575.04447
557.21447
565.05176
564.6097
564.6088
565.05189
557.23629
575.05179
576.31317
563.23002
551.8327
561.66321
575.29211
581.73149
567.92267
555.39972
562.80242
564.27881
566.18356
564.06176
560.34662
565.82941
566.89905
559.54704
562.60064
562.63097
559.62711
566.67695
566.10136
559.95554
564.81559
565.71432
569.42397
566.27559
569.48325
569.94376
561.6087
565.43059
572.32047
571.15238
561.83264
562.14221
562.16778
561.87949
571.1723
572.323
565.45647
561.51732
569.49894
569.26299
565.25685
567.58816
567.18247
555.7115
557.48595
563.75533
565.82118
573.04392
565.90129
558.90124
567.05243
574.0208
565.85374
559.24787
564.18106
564.59329
563.87379
562.01271
560.41777
562.89272
562.02094
563.34169
563.04232
563.4554
562.95417
563.67616
564.13956
564.14619
563.89682
564.29899
563.60857
562.73161
557.07877
568.82917
568.16971
565.10465
561.2221
563.13203
563.39946
563.73323
564.15977
564.40814
564.35683
563.99566
564.35465
563.789
563.14695
562.74531
560.97007
561.89412
562.28838
563.12589
563.93707
564.52582
564.84599
564.68593
564.74778
564.54369
564.16195
563.90009
563.40092
563.61162
561.22544
557.08312
568.82814
568.16791
550.79379
551.16059
510.68086
503.3979
504.39012
504.39032
503.39757
496.19251
499.75578
555.68978
555.36827
501.5654
502.18448
491.077
500.06223
499.26483
487.55281
483.11719
493.51225
501.39164
504.11797
505.58837
502.86302
498.15936
503.98402
504.41255
495.64832
496.10193
496.0485
495.52152
504.31899
504.00666
498.02865
503.25207
511.76482
512.62924
552.01909
552.37717
510.07649
495.50652
510.97812
504.26464
498.68557
562.24365
563.28354
562.24457
563.3411
562.69047
560.91054
561.87373
562.26374
563.09448
563.89343
564.46726
564.77702
564.8491
564.91789
564.75068
564.41295
564.15187
564.18633
564.3024
565.85872
562.73361
501.6824
504.26841
542.84348
555.7023
499.73171
496.19622
439.73719
441.98277
442.57117
442.57099
441.98111
439.73174
438.55188
439.85767
439.84049
435.85594
439.07135
438.71023
433.93817
430.94181
437.82421
440.91835
442.58521
443.42009
441.95834
441.4529
442.21843
442.70418
439.62925
439.60929
439.59515
439.54411
442.5992
442.17578
441.34442
392.59123
392.81288
393.31504
393.29376
392.85635
442.23647
503.35299
497.99558
504.0736
504.2783
495.68417
496.09226
496.05312
495.59526
504.41173
503.87811
498.22409
502.81129
505.65736
504.10322
501.44211
493.52533
483.13114
539.47566
560.30054
552.86153
499.29722
500.09293
491.09049
502.16395
501.52053
555.41513
544.09756
511.05706
506.22948
492.75986
508.86637
513.24667
512.41195
555.92958
574.04007
567.06413
558.89895
559.2514
565.8192
564.60039
564.14798
564.3646
564.69169
564.36268
564.53105
564.46954
564.18174
563.67629
563.07766
563.03359
563.33085
563.67826
563.89789
563.9438
563.79837
563.46729
564.00586
563.68708
563.88389
563.75791
557.49732
562.02773
562.96789
562.90914
563.05545
563.15667
563.13324
563.10149
563.08171
563.03471
563.34191
562.69753
562.27411
562.29627
562.75403
563.35564
562.03998
565.27429
560.43768
555.7304
567.22183
567.58238
550.16315
511.0732
509.15276
549.69524
506.84734
508.9171
493.12146
432.49852
440.95766
437.84045
430.95251
433.95699
487.6055
487.14664
503.39254
503.71942
544.01711
541.10882
504.89415
490.62348
508.61085
429.59183
438.72099
439.06898
435.84998
439.8538
439.8681
438.55199
389.88396
391.19132
392.46031
392.60328
392.60317
392.45908
391.18792
389.88445
390.39584
390.48681
388.40935
390.18177
389.83717
387.28177
385.68434
390.06303
391.84428
392.71154
393.24268
392.71946
392.6907
392.91775
393.2732
391.79747
391.91528
391.87187
391.69734
393.17833
392.85722
352.33616
352.29919
352.28421
352.50973
352.49994
352.31606
352.31377
392.59825
441.33389
442.23459
442.62572
439.64641
439.60662
439.60771
439.60993
442.68278
442.1422
441.47885
441.93088
443.46432
442.58748
392.71741
391.87254
390.07816
385.69506
387.29802
389.8476
390.18347
388.40721
390.49331
390.39901
350.27904
350.00297
351.11498
351.88032
351.95204
351.95211
351.87942
351.11264
350.00278
350.27644
350.37482
349.19424
350.30431
350.02747
348.41648
347.44989
350.35871
351.53823
352.10631
352.46409
352.25667
352.38942
352.40202
352.64573
351.88413
351.98781
351.95588
351.80505
352.56207
318.97394
318.82912
318.89072
318.76298
318.86069
318.857
318.78713
318.90786
318.86819
319.01334
352.60407
393.21653
391.80335
391.91512
391.88585
391.74988
393.24283
392.85837
392.69639
392.7004
393.26793
352.47752
352.11179
351.55807
350.37131
347.45933
348.42923
350.03593
350.30627
349.1934
350.3796
317.25117
317.13601
317.0011
317.90469
318.35885
318.40983
318.40988
318.35815
317.90299
317.00058
317.13386
317.24755
316.57058
317.28683
317.03975
315.93998
315.34945
317.35394
318.16127
318.57423
318.83001
318.76689
318.97064
318.89296
319.04544
318.6624
318.74484
318.71943
318.59857
290.90349
291.06903
290.98545
291.08782
290.9134
290.9453
290.94464
290.93216
291.10495
291.01858
291.10438
290.95306
318.66128
351.88527
351.98969
351.96935
351.84639
352.61236
352.35248
352.38395
352.24122
318.75372
318.83651
318.57845
318.17522
317.36411
315.35749
315.95003
317.04666
317.28883
316.57048
289.30259
289.69114
289.57294
289.53198
290.26298
290.52936
290.56975
290.56973
290.52878
290.26169
289.5313
289.57112
289.68835
289.3023
289.76653
289.53958
288.75544
288.40518
289.83576
290.40461
290.72322
290.91869
290.92909
291.15679
291.04415
291.1299
290.95558
291.02699
291.00645
267.72633
267.63669
267.69139
267.64874
267.76159
267.58088
267.57859
267.57938
267.59574
267.77756
267.67672
267.7224
267.6764
267.74451
291.02865
318.74707
318.73121
318.63131
319.01431
318.85197
318.96001
291.14449
290.91786
290.9214
290.72635
290.41464
289.84397
288.41198
288.76345
289.54526
289.76846
266.64153
266.33975
266.56056
266.45309
266.47153
267.06403
267.2237
267.2576
267.25755
267.22321
267.06301
266.4708
266.45153
266.55834
266.33923
266.63972
266.43338
265.85923
265.6623
266.71557
267.13385
267.3914
267.54983
267.59826
267.81976
267.7011
267.74323
267.67976
267.74317
247.95417
247.94004
247.86239
247.86269
247.84508
247.95268
247.78733
247.768
247.76943
247.79931
247.9671
247.86875
247.88965
247.89476
247.95534
247.94783
267.73491
291.01632
290.92997
291.1022
291.01051
267.67355
267.80754
267.58877
267.5506
267.39379
267.14131
266.7223
265.66809
265.86573
266.43811
246.80022
246.98213
246.78756
246.9125
246.82315
246.87584
247.35683
247.45895
247.48847
247.48841
247.45854
247.35601
246.87512
246.82181
246.91068
246.7869
246.98044
246.79623
246.36871
246.26766
247.06287
247.38568
247.60114
247.73493
247.80194
248.00099
247.89096
247.90697
247.8986
230.86763
230.9156
230.90368
230.83701
230.81322
230.80964
230.9049
230.76336
230.73641
230.73807
230.7732
230.91773
230.82977
230.83657
230.86368
230.91662
230.9107
230.85293
247.881
267.65863
267.71915
247.88624
247.8683
247.98963
247.79396
247.73475
247.60303
247.39143
247.06849
246.27265
246.37408
229.57423
229.8951
230.05518
229.93101
230.00108
229.93136
230.00118
230.39207
230.46386
230.49009
230.49003
230.4635
230.3914
230.00049
229.93019
229.99956
229.93028
230.0536
229.89169
229.5697
229.52726
230.1394
230.39926
230.5835
230.69928
230.77383
230.9447
230.84944
230.85114
216.00024
216.02612
216.06704
216.05692
216.00003
215.96762
215.97109
216.0519
215.93509
215.90569
215.90738
215.94329
216.06325
215.98834
215.98784
216.02225
216.06793
216.06324
216.01378
215.98504
230.83339
230.83069
230.93447
230.76711
230.69867
230.58507
230.40384
230.14418
229.53161
214.914
214.9216
215.16538
215.30468
215.22701
215.26561
215.21367
215.2898
215.60794
215.6634
215.68697
215.68691
215.66309
215.60737
215.28916
215.21265
215.26432
215.22626
215.30322
215.16242
214.91773
214.91018
215.38869
215.60441
215.76408
215.86569
215.94145
216.08462
216.00552
202.93905
202.93103
202.95881
202.9935
202.98484
202.93642
202.90281
202.90927
202.97606
202.88144
202.85245
202.85407
202.88838
202.9861
202.92417
202.92038
202.95511
202.99428
202.99054
202.94839
202.91798
202.92588
215.98987
216.07553
215.93576
215.86491
215.76542
215.60816
215.39281
202.40211
202.02295
202.01034
202.19707
202.31749
202.27065
202.29127
202.25405
202.33012
202.58972
202.63573
202.65709
202.65704
202.63547
202.58924
202.32953
202.25315
202.29016
202.2699
202.31613
202.19449
202.007
202.01957
202.39852
202.58126
202.72089
202.81084
202.88425
203.00299
191.38852
191.33777
191.32925
191.35559
191.3849
191.37744
191.33622
191.3047
191.31195
191.36632
191.29029
191.26319
191.26471
191.29624
191.37521
191.32491
191.32002
191.35211
191.38559
191.38259
191.34673
191.318
191.32657
191.38142
202.99495
202.87938
202.81001
202.72204
202.58439
191.02059
190.86426
190.56045
190.53672
190.68089
190.78461
190.75827
190.7688
190.74316
190.81573
191.02842
191.06831
191.08781
191.08776
191.06809
191.02801
190.8152
190.74237
190.76783
190.75754
190.78336
190.67862
190.5338
190.55745
190.86112
191.01794
191.14089
191.22101
191.29018
180.92205
181.00378
180.96401
180.95607
180.97964
181.00439
180.99791
180.96279
180.93459
180.94156
180.98544
180.92449
180.9
180.90139
180.92964
180.99335
180.95293
180.94802
180.97641
181.00501
181.00258
180.97208
180.94633
180.9544
180.9975
180.91837
191.28598
191.22018
191.14188
180.78713
180.67966
180.54437
180.29823
180.26888
180.38104
180.47023
180.45752
180.4626
180.44582
180.51328
180.68845
180.72388
180.74183
180.74178
180.72369
180.6881
180.51281
180.44513
180.46178
180.45683
180.46909
180.37904
180.26632
180.29555
180.54162
180.6774
180.78629
180.858
171.53579
171.59444
171.6628
171.63191
171.62498
171.64544
171.66632
171.66066
171.63068
171.60608
171.61232
171.64761
171.5987
171.57709
171.57834
171.6032
171.65468
171.62236
171.61792
171.64246
171.66688
171.6649
171.63894
171.6165
171.6236
171.65721
171.59119
171.53499
180.85719
180.91737
180.9899
180.79268
180.83982
180.94055
180.4469
180.54848
180.6914
180.75122
180.67658
180.60239
171.32568
171.17838
171.24016
171.38531
171.4172
171.43383
171.43377
171.41705
171.38505
171.2398
171.17784
171.18785
171.18554
171.18883
171.11143
171.02304
171.05458
171.25608
171.37441
171.47135
163.04725
163.10534
163.15869
163.2163
163.1925
163.18665
163.2041
163.22168
163.21668
163.19103
163.16987
163.17525
163.20363
163.16429
163.14552
163.14669
163.16831
163.21001
163.18422
163.18037
163.20131
163.22217
163.22056
163.19847
163.17922
163.18522
163.21129
163.15578
163.10456
163.0478
171.47204
171.37634
171.25847
171.05692
171.02524
171.11314
171.1898
171.18611
171.1885
162.79891
162.79376
162.84988
162.97096
162.99986
163.01535
163.01535
162.99982
162.97087
162.84976
162.79354
162.79861
162.79737
162.7948
162.72821
162.65841
162.69031
162.85693
162.96061
155.31449
155.3922
155.4447
155.493
155.54195
155.52371
155.51886
155.5336
155.54838
155.54393
155.52191
155.50381
155.5084
155.5313
155.49953
155.48344
155.48453
155.50315
155.53711
155.51648
155.51321
155.53097
155.54881
155.5475
155.52866
155.51228
155.51725
155.5374
155.49031
155.44384
155.39249
155.31564
162.9622
162.85894
162.69223
162.66016
162.72949
162.79542
162.79763
155.1719
155.17298
155.17149
155.22228
155.32402
155.35032
155.36484
155.36492
155.35052
155.32435
155.22274
155.172
155.1735
155.17247
155.16613
155.10873
155.0532
155.08428
155.22332
148.2544
148.33462
148.40445
148.45193
148.4955
148.53755
148.52357
148.5195
148.53196
148.54443
148.5404
148.52136
148.50582
148.50979
148.52842
148.50252
148.48891
148.48992
148.50585
148.53378
148.51717
148.51433
148.52944
148.54477
148.5437
148.52756
148.51357
148.51773
148.5333
148.49287
148.45083
148.40424
148.33496
148.25473
155.22475
155.08551
155.05411
155.10914
155.16591
148.20001
148.20835
148.20963
148.21073
148.25675
148.343
148.36693
148.38069
148.38098
148.36774
148.34434
148.25868
148.21309
148.21218
148.211
148.2023
148.15259
148.10793
148.13749
141.76548
141.86427
141.93435
141.99702
142.03985
142.07894
142.11567
142.10481
142.10121
142.112
142.12265
142.11895
142.10224
142.08857
142.09219
142.1076
142.086
142.07462
142.07559
142.08912
142.11262
142.09903
142.09639
142.10953
142.12291
142.12203
142.10802
142.09578
142.09942
142.11156
142.07615
142.03819
141.99578
141.93307
141.86231
141.7621
148.13726
148.10705
148.15102
141.76868
141.81113
141.82081
141.82237
141.8251
141.86707
141.94104
141.96262
141.97595
141.97672
141.96489
141.94474
141.87239
141.83173
141.82962
141.82833
141.81822
141.77473
141.738
135.87036
135.89496
135.97825
136.03798
136.09372
136.13197
136.16668
136.19975
136.19097
136.18747
136.19747
136.2069
136.20345
136.18835
136.1756
136.17918
136.19229
136.17324
136.16387
136.16481
136.17622
136.19708
136.18562
136.18287
136.19502
136.20707
136.20637
136.19382
136.18243
136.18589
136.19561
136.16343
136.12918
136.09044
136.03341
135.97156
135.88496
135.85705
141.73316
141.83925
141.89428
141.95949
141.98336
141.95906
141.92841
136.03709
135.93866
135.97746
136.04192
136.0609
136.07437
136.07614
136.06632
136.05074
135.9901
135.95456
135.95281
135.95185
135.94093
135.90205
130.47178
130.44172
130.46192
130.53083
130.57849
130.62679
130.6601
130.69025
130.72162
130.71395
130.71015
130.72071
130.72971
130.72646
130.71207
130.69885
130.70271
130.71433
130.69563
130.68805
130.68896
130.69853
130.71897
130.70885
130.70571
130.71826
130.72981
130.72925
130.71734
130.70543
130.70908
130.71724
130.68606
130.65517
130.61964
130.56755
130.51488
130.43885
130.41156
130.43701
135.8864
135.92347
135.93376
135.93538
130.48131
130.48372
130.52031
130.57775
130.5934
130.60788
130.61163
130.60514
130.59676
130.54748
130.51812
130.51901
130.51937
130.508
125.46787
125.43185
125.39914
125.41202
125.46574
125.49764
125.53683
125.56425
125.58929
125.62136
125.61394
125.60958
125.62262
125.63214
125.62901
125.61433
125.59875
125.60312
125.61388
125.59274
125.58666
125.58756
125.59558
125.6184
125.609
125.60527
125.62014
125.63222
125.6318
125.61949
125.60519
125.60927
125.61655
125.58354
125.55564
125.52291
125.47521
125.43293
125.36505
125.33798
125.36198
125.39181
130.46985
130.4802
125.40173
125.40145
125.40109
125.4363
125.48889
125.49992
125.51668
125.52396
125.52318
125.52647
125.48997
125.4693
125.4762
125.4795
120.79465
120.78286
120.74411
120.70352
120.704
120.73926
120.74955
120.77644
120.79632
120.81544
120.8509
120.8432
120.83835
120.85614
120.86736
120.86436
120.84826
120.82811
120.83289
120.84316
120.81639
120.81141
120.81228
120.81916
120.84751
120.83847
120.83427
120.85371
120.86745
120.86716
120.85331
120.83436
120.8388
120.84557
120.8075
120.78209
120.75184
120.70829
120.67836
120.617
120.59009
120.61525
120.64329
120.65237
120.64961
120.64421
120.67846
120.72781
120.73244
120.75292
120.76585
120.77461
120.79605
120.77605
120.76882
120.7862
116.43115
116.44707
116.43521
116.3909
116.33701
116.31724
116.32727
116.30856
116.31839
116.32874
116.34129
116.38241
116.37475
116.37026
116.39475
116.40873
116.40594
116.38754
116.36107
116.36551
116.37501
116.34018
116.3357
116.33651
116.34277
116.37906
116.37062
116.36671
116.39252
116.40876
116.40858
116.39232
116.36689
116.37086
116.3768
116.33103
116.30737
116.27935
116.24008
116.22429
116.16922
116.14321
116.1716
116.1987
116.2066
116.20052
116.18828
116.22102
116.26756
116.26418
116.28933
116.31027
116.33371
116.38113
116.3847
116.39847
112.37221
112.42359
112.44789
112.43609
112.38502
112.31408
112.26212
112.23449
112.17948
112.16691
112.16639
112.17292
112.21972
112.21473
112.21305
112.24402
112.26072
112.2583
112.23793
112.20567
112.20773
112.21448
112.17225
112.16765
112.16837
112.17453
112.21801
112.21213
112.21053
112.24224
112.26067
112.26056
112.24214
112.2106
112.21191
112.21479
112.16162
112.13865
112.11255
112.07808
112.07615
112.0301
112.00788
112.03876
112.0638
112.06992
112.06103
112.04258
112.0716
112.11299
112.1018
112.13103
112.16134
112.20495
112.2859
112.32568
108.64489
108.74522
108.81473
108.84313
108.83127
108.77766
108.69081
108.58541
108.49484
108.39671
108.35892
108.349
108.35139
108.39965
108.40516
108.41142
108.44433
108.46183
108.45985
108.43989
108.4069
108.40212
108.3996
108.3563
108.35242
108.35301
108.35809
108.40236
108.4055
108.41053
108.44327
108.46179
108.46162
108.44315
108.41041
108.40434
108.39735
108.34266
108.32046
108.29594
108.26573
108.27366
108.24759
108.23642
108.26148
108.27745
108.28026
108.27212
108.25328
108.27344
108.30152
108.28639
108.3174
108.35531
108.42205
108.54374
105.18633
105.4081
105.59904
105.67979
105.69885
105.68675
105.64418
105.54845
105.35352
105.14112
104.98465
104.92899
104.917
104.91424
104.95126
104.98807
105.00802
105.03227
105.05787
105.0586
105.03186
105.00688
104.99028
104.95944
104.93077
104.93545
104.93579
104.93188
104.9612
104.99254
105.0091
105.03207
105.05789
105.0598
105.034
105.00873
104.99016
104.95417
104.91347
104.89956
104.87621
104.84346
104.85111
104.87955
104.89391
104.88802
104.8778
104.88084
104.87743
104.87058
104.8708
104.86146
104.85492
104.88793
104.9257
105.00853
101.87342
102.13083
102.69652
103.07281
103.09377
103.07171
103.06114
103.0617
103.02614
102.64704
102.08988
101.85207
101.75005
101.74776
101.80828
101.73033
101.9414
101.94699
101.94297
102.08107
102.08015
101.94313
101.94947
101.94904
101.74804
101.83965
101.79453
101.79464
101.84003
101.74892
101.94998
101.94923
101.94323
102.08096
102.08072
101.94414
101.94953
101.94697
101.7408
101.82152
101.75803
101.73548
101.75538
101.688
101.96372
101.88644
101.81271
101.79832
101.92113
101.81351
101.82542
101.83224
101.64973
101.75437
101.72048
101.74705
99.355134
99.393524
99.66066
100.62763
101.38242
101.19932
101.13681
101.12516
101.16986
101.34116
100.58308
99.625797
99.371093
99.363405
99.357946
99.392921
99.373413
99.465156
99.48054
99.488324
99.493515
99.494239
99.491855
99.486037
99.47579
99.397587
99.432579
99.429885
99.430529
99.431544
99.396174
99.474937
99.485923
99.487791
99.493387
99.494825
99.4916
99.487378
99.474408
99.387216
99.418392
99.390059
99.389088
99.349377
99.401039
99.915711
99.874909
99.485043
99.390355
99.381777
99.381988
99.378614
99.363735
99.302799
99.33602
99.335382
97.0923
97.078095
97.156725
97.425972
97.347669
97.207601
97.205468
97.169492
97.199973
97.29603
97.420143
97.11443
97.117301
97.088449
97.204733
97.282991
97.186677
97.165238
97.383185
97.275035
97.277114
97.389631
97.170669
97.200368
97.317101
97.243886
97.19933
97.204047
97.236962
97.318616
97.195358
97.170016
97.380591
97.274066
97.277999
97.388131
97.166896
97.206984
97.294903
97.260132
97.132559
97.231762
97.138903
97.390563
97.003583
96.926314
97.308969
97.350803
97.196124
97.300598
97.096489
97.078096
97.241791
97.110959
97.059039
97.100162
97.222017
97.126525
97.111083
97.214545
97.341381
97.284661
97.148553
97.111438
97.177203
97.271867
97.148269
97.148417
97.311116
97.16716
97.011741
97.015197
97.461228
98.043426
98.093384
97.522571
97.035167
97.005317
97.171206
97.349842
97.092214
97.108997
99.371494
99.320761
99.760633
99.836922
101.2596
99.95107
99.862741
99.491129
99.880952
101.18935
99.816623
99.299293
99.327218
99.8002
99.759598
99.365547
97.252698
97.162942
97.22609
97.227868
97.224501
97.127822
97.254661
97.377943
97.117605
97.187441
99.359136
99.322888
99.76565
101.19755
99.831681
99.914924
99.840915
99.412381
99.488039
100.23681
101.38944
100.10468
100.09561
100.24057
99.883047
99.237867
99.250173
99.85528
100.13478
100.08928
101.352
99.818611
99.899989
99.439831
97.242794
97.311821
97.22121
97.293898
97.059764
96.982901
99.374119
99.875036
99.95942
101.35344
99.897514
99.374182
99.841069
99.47119
101.90424
102.11238
101.90795
101.69191
101.92955
101.80043
102.01411
105.05157
108.5298
108.5962
108.45774
104.95988
105.05026
105.08061
104.98557
108.5215
108.60667
108.43763
104.99251
105.02984
108.49592
108.52483
105.04556
101.98977
99.413954
99.41209
99.312664
99.44352
99.273945
99.185646
101.7502
101.9451
102.08059
101.89346
102.04847
102.23137
99.520974
99.377105
99.612699
99.055969
99.069534
99.266086
99.555824
102.03822
101.85678
102.10664
102.38369
102.76072
100.70565
99.735668
99.389006
99.324701
99.305189
99.364394
99.693584
100.66501
100.60107
100.58457
100.59624
100.63075
102.83298
102.83698
102.49749
102.47132
99.673879
97.252778
97.192204
97.455241
98.223254
99.475743
99.653742
99.636797
99.445397
98.182836
97.897779
96.881453
96.832437
96.837647
96.883668
97.920243
98.19939
99.488941
99.671071
99.670227
99.488226
98.205133
97.925503
96.895524
96.849725
96.849941
97.033138
97.140646
97.223238
97.067972
97.128667
97.360942
97.278957
97.280931
97.364963
97.128615
97.072593
97.222468
97.14015
97.035664
96.866003
96.863895
96.913077
97.965292
98.263161
99.610349
99.811032
99.846855
99.654992
98.312446
98.013191
96.93382
96.881201
96.874645
96.92723
97.943773
99.236557
99.852482
101.28836
104.37505
108.11961
110.25987
110.22935
108.05694
104.29865
101.24609
99.848916
99.234468
97.946579
97.504718
97.226948
97.269986
97.267577
97.357174
98.069385
99.496995
98.221005
99.680489
100.69134
104.23373
107.23547
109.46566
112.79837
114.79093
116.87083
117.63203
117.6452
116.89931
114.84978
112.87282
109.56334
107.31797
104.32423
109.54122
112.17591
115.90096
118.15631
120.62299
121.52486
121.51505
120.59543
118.10382
115.8216
112.06907
109.45003
112.72697
107.88903
103.33595
101.86208
102.15091
99.672146
99.664932
98.064292
97.355346
97.26645
97.267724
97.224133
97.495796
98.201854
99.479842
101.83876
102.14285
103.87172
103.88291
109.95944
116.69778
114.66755
117.98666
115.75865
118.93737
121.8718
124.46767
125.76702
125.77467
124.49366
121.92462
119.01647
115.87414
112.82487
107.99696
114.7807
118.11807
121.90405
125.78318
128.90086
130.56119
130.56329
128.87979
125.72592
121.81298
124.36516
120.4267
121.31963
117.4301
117.42834
109.94596
116.68464
120.4173
121.32109
125.6345
125.63628
130.48184
128.82698
132.44634
134.41856
134.4187
132.47109
128.88834
124.46125
120.57097
116.82127
110.10077
117.55591
121.46647
125.73703
130.54239
134.41743
136.53215
136.52889
134.39588
134.39368
130.48625
128.82378
124.35174
121.78514
117.95967
114.63869
107.84259
103.30559
100.65449
99.655775
99.202475
97.922879
96.895002
97.490103
97.919369
99.80828
101.188
104.1552
109.36184
112.66989
115.70016
118.87518
121.80704
125.69738
128.84972
132.4441
134.41668
136.5301
136.53503
134.41849
130.54736
125.72998
121.45429
117.54299
110.07385
116.78878
120.53947
124.44642
128.88268
132.46245
134.41733
130.53355
130.52991
125.69005
124.39684
120.46994
117.99031
115.7164
111.9661
109.36598
107.15414
104.16362
107.86897
112.68953
114.67099
116.73486
117.48173
121.37905
121.38046
125.68936
124.40957
128.86765
125.74756
121.86272
118.0653
114.72962
107.92931
112.74586
115.79264
118.9414
121.84737
118.02135
120.47782
116.74398
117.48375
109.9919
109.98363
103.89035
103.32559
100.66238
99.81415
99.208597
97.491497
97.290658
98.384505
98.45404
100.65505
101.00086
103.74633
103.96829
103.97493
103.7626
101.01968
100.67433
98.487022
96.914306
97.525269
97.316215
97.523638
99.26141
99.733006
101.98636
102.30702
102.34346
102.03826
99.77928
99.31092
97.547281
97.336229
97.54792
97.996598
99.928113
100.81434
103.54326
104.12558
104.08529
103.48212
100.76135
99.872648
97.966963
98.669678
98.482339
100.70141
101.05719
103.86184
104.09163
104.13047
103.91138
101.10044
100.74539
98.507783
98.429272
99.324279
98.508913
98.698318
100.86036
102.08565
101.53067
104.50025
105.49348
104.92197
110.92737
108.84126
105.16751
102.08559
100.77889
100.66467
101.99274
101.01012
99.686677
100.71082
103.32289
101.8346
102.12546
103.88069
103.85815
102.10483
101.79673
103.27496
100.64928
104.2175
107.20033
109.42914
112.73699
114.70029
107.8954
104.19585
101.1939
99.787108
99.182483
99.638455
100.96726
103.66549
103.88744
103.90919
103.69758
105.2577
104.27487
101.43038
105.11198
108.31087
110.85069
112.76226
112.19821
110.22524
112.86871
110.2035
112.19161
113.58047
118.50184
117.23504
114.12885
115.7356
118.53854
119.93049
119.9685
119.00915
117.01822
119.97063
116.99085
114.07542
108.70967
117.19451
119.88018
118.46569
119.93137
118.49181
115.66325
118.97229
121.70311
118.05772
110.75546
104.67807
104.65588
105.23257
104.23583
101.3778
101.9525
100.62206
100.73102
102.01597
105.03079
108.65894
110.73316
118.63948
118.65372
122.08589
121.59959
124.23593
123.15493
123.7463
122.49356
126.77821
125.49377
122.86296
124.02923
121.10666
124.04941
122.88285
126.93542
128.37001
131.73619
126.76878
123.20916
121.66391
118.14269
118.75062
122.15366
124.31345
123.79672
122.551
121.7538
125.52585
126.81605
128.07371
133.49171
131.86338
130.15979
133.85491
130.14933
131.72612
126.7362
128.03792
133.47827
131.84573
135.86273
137.67548
135.59947
137.67664
135.86068
138.04486
139.9333
142.02688
139.68771
135.31538
129.35451
128.03128
125.21828
122.14733
123.71085
126.98184
131.73972
126.95693
125.19475
129.99073
133.49956
135.36948
129.80076
131.24448
137.25602
139.15952
132.35118
127.33733
113.77546
111.58124
107.93066
104.77579
103.14337
106.04993
109.59938
111.56349
111.53311
105.44793
104.87758
104.44379
101.48283
102.04053
100.81408
102.05869
105.10454
108.7872
110.89729
118.73299
122.14072
124.29821
121.63938
118.11652
121.73158
122.5424
123.78866
123.18697
119.93385
118.49855
115.67943
114.06852
117.19004
119.89119
118.45281
116.9549
118.96394
122.83738
125.50456
126.80925
128.06732
126.7507
131.72397
133.49298
131.87001
130.1447
126.88725
128.33319
124.01168
121.05705
119.90893
122.78737
123.97136
126.67614
131.68715
135.58526
137.67548
135.86428
133.83414
135.84615
138.04373
139.93567
137.66857
133.44179
131.79599
130.09479
125.41817
126.69561
127.97533
123.6317
123.04366
119.83637
118.38132
113.50107
112.12403
110.13831
108.23426
105.07436
110.78286
112.6935
112.12211
110.1171
112.77502
116.888
113.98258
108.68214
117.11771
119.80215
118.40466
115.55757
118.85638
121.57445
117.94165
110.71943
121.50454
124.14025
121.98611
118.53452
122.36364
122.36832
126.6977
131.80296
135.84591
138.04764
138.05172
135.86697
131.85258
126.77166
122.48011
123.73012
122.07647
124.22616
121.5805
118.02944
121.67344
123.12922
119.8982
118.45966
115.61593
118.92703
116.9286
114.0138
117.15894
119.85094
118.43088
121.06642
124.00888
126.72557
128.03191
133.48061
131.72756
130.14896
125.4847
122.83119
126.91005
128.35992
124.01445
122.82754
119.91669
116.9113
115.77448
112.04487
109.42176
110.09526
112.09995
112.67146
113.48502
112.7564
110.09772
105.04637
108.20029
110.76467
112.11251
117.15021
118.41109
119.83997
119.87271
118.89488
115.58763
108.69764
113.99735
118.44532
121.57299
123.10881
126.73282
131.73276
135.61255
137.68385
139.94534
137.69477
135.86775
133.85258
130.13826
131.85165
133.49555
128.04119
126.75426
125.46193
121.63015
122.43172
123.70216
124.21701
122.05466
110.75862
117.98965
118.58969
118.58867
122.43147
126.75652
131.85111
135.8703
137.69659
139.94245
137.66835
135.60032
133.84344
130.10031
131.69855
133.44458
127.98201
126.67814
125.40801
122.77114
126.87288
130.12799
131.72888
133.49813
128.04452
126.73171
125.4565
122.79523
123.99634
128.3367
123.96892
121.03474
119.86697
116.8524
118.84303
121.57198
123.04347
123.63564
124.14457
121.99311
110.71172
118.5332
117.93283
121.50478
118.40147
119.82928
119.79665
118.36593
117.10382
108.65261
115.5345
113.94464
110.04435
112.69224
116.87038
118.87414
121.62846
123.10612
123.70196
124.21677
122.05711
110.75358
117.98508
121.56527
118.43604
119.86099
119.82802
118.38688
117.12842
108.68192
115.56628
113.96595
110.04653
105.02967
112.06221
113.42952
112.62982
112.06512
105.01966
108.16119
110.73331
102.02358
103.0937
105.93284
109.4514
111.38243
111.38582
109.46676
105.97152
103.1211
105.99678
109.55422
111.53604
113.75195
127.32195
122.47202
125.07763
113.0369
109.39413
103.35409
102.17405
101.86242
101.88148
99.457146
99.282194
99.354803
101.7789
102.06757
102.08876
101.78615
101.67952
101.72383
101.88573
102.00242
99.3097
99.452342
100.28765
100.33368
103.38799
102.56891
101.99949
101.88756
102.03435
99.077778
97.032263
97.169465
97.374461
99.765293
99.392495
99.464404
102.24834
102.3745
99.548836
97.242869
97.938344
97.925502
97.23292
97.20866
97.223234
99.656422
99.645825
102.48717
102.82555
102.80108
102.44353
99.647786
97.232315
97.172111
97.430722
97.012094
97.148032
97.343568
97.335493
97.163631
97.002406
97.024584
97.494305
98.067579
98.067444
97.496851
97.033323
97.021109
97.173774
97.320468
97.148875
97.186262
97.282277
97.173979
97.14087
97.224242
97.35502
97.3542
97.219197
97.125643
97.14538
97.236142
97.125187
97.072469
99.310277
99.366679
99.856168
99.944741
99.828155
101.24907
99.748449
102.00405
102.00938
102.34679
102.71632
105.4727
105.58432
105.64203
105.65424
105.61883
105.5211
108.79186
112.47019
116.50485
116.6337
116.54285
116.44402
112.33051
112.42485
112.27755
116.4083
116.53883
116.63771
116.47398
112.34956
112.43383
112.23641
116.35605
116.40895
112.297
112.32812
116.43661
116.68763
116.63835
116.54747
116.69252
112.59928
112.52917
108.68107
108.75805
105.16688
105.07595
105.15954
108.70474
108.75906
105.20412
105.4594
105.30807
108.88317
109.03294
112.83981
112.58898
112.53419
112.70535
116.7744
116.8859
117.90877
117.13148
116.71923
116.69549
116.66232
112.56798
112.45513
108.67504
105.20629
105.17012
108.74059
108.85245
108.81785
105.39661
105.30916
105.46826
105.51994
108.93562
108.88103
108.92318