/*--------------------------------*- C++ -*----------------------------------*\
  =========                 |
  \\      /  F ield         | OpenFOAM: The Open Source CFD Toolbox
   \\    /   O peration     | Website:  https://openfoam.org
    \\  /    A nd           | Version:  7
     \\/     M anipulation  |
\*---------------------------------------------------------------------------*/
FoamFile
{
    version     2.0;
    format      ascii;
    class       volScalarField;
    location    "160";
    object      T;
}
// * * * * * * * * * * * * * * * * * * * * * * * * * * * * * * * * * * * * * //

dimensions      [0 0 0 1 0 0 0];

internalField   nonuniform List<scalar> 
24866
(
299.99997
299.99996
299.99997
299.99999
300
300
300
300
300
300
300
300
300
300
300
300
300
300
300
300
300
300
300
300
300
300
300
300
300
300
300
300
300
300
300
300
300
300
300
300
300
300
300
300
300
300
300
300
300
300
300
300
300
300
300
300
300
300
300
300
300
300
300
300
300
300
300
300
300
300
300
300
300
300
300
300
300
300
300
300
300
300
300
300
300
300
300
300
300
300
300
300
300
300
300
300
300
300
300
300
300
300
300
300
300
300
300
300
300
300
300
300
300
300
300
300
300
300
300
300.00001
300
300
300.00001
300
300
300
300
300
300
300
300.00001
300.00001
300.00001
300.00001
300.00001
300.00001
300
300
300
300
300
300
300
300
300
300
299.99999
299.99998
299.99999
299.99999
299.99998
299.99999
299.99999
300
300
299.99999
299.99999
299.99999
299.99999
299.99999
299.99998
299.99999
299.99999
299.99998
299.99999
299.99999
299.99998
299.99999
299.99998
299.99998
299.99999
299.99999
299.99999
299.99999
299.99998
299.99998
299.99999
299.99998
299.99999
299.99999
300
300
299.99999
299.99998
299.99999
299.99999
300
300
300
300
300
300
300
300
300
300
300.00001
300.00001
300.00001
300.00001
300.00001
300.00001
300.00001
300
300
300
300
300
300
299.99999
299.99999
300
299.99999
299.99999
299.99997
299.99997
299.99997
299.99997
299.99997
299.99997
299.99997
299.99997
299.99997
299.99997
299.99997
299.99997
299.99997
299.99997
299.99997
299.99997
299.99997
299.99997
299.99997
299.99997
299.99997
299.99997
299.99997
299.99997
299.99997
299.99997
299.99997
299.99997
299.99997
299.99994
299.99994
299.99994
299.99994
299.99994
299.99996
299.99998
299.99999
299.99998
299.99998
299.99999
299.99999
299.99999
299.99999
299.99998
299.99998
299.99999
299.99998
299.99999
299.99999
299.99998
299.99999
299.99999
299.99999
300
300
299.99999
299.99999
299.99999
299.99999
299.99999
300
299.99999
299.99999
299.99999
299.99998
299.99999
299.99999
299.99999
299.99999
300
300
300
300
300
300
300
300
300.00001
300.00001
300.00001
300.00001
300.00001
300
300
300
300
300
300.00001
300.00001
300
300
300
300
300
300
300
300
300
300
300
300
300
300
300
300
300
300
300
300
300
300
300
300
300
300
300
300
300
299.99999
299.99999
300
299.99999
299.99999
299.99998
299.99997
299.99997
299.99997
299.99997
299.99997
299.99999
299.99999
299.99999
299.99999
299.99999
299.99999
299.99999
299.99998
299.99999
299.99998
299.99997
299.99997
299.99997
299.99997
299.99997
299.99997
299.99994
299.99994
299.99994
299.99994
299.99994
299.99994
299.99994
299.99994
299.99994
299.99994
299.99994
299.99995
299.99994
299.99994
299.99994
299.99994
299.99994
299.99994
299.99994
299.99994
299.99994
299.99994
299.99994
299.99994
299.99994
299.99994
299.99994
299.99994
299.99994
299.99991
299.99991
299.9999
299.9999
299.9999
299.9999
299.99991
299.99994
299.99997
299.99997
299.99997
299.99997
299.99997
299.99997
299.99997
299.99997
299.99997
299.99997
299.99997
299.99997
299.99997
299.99994
299.99994
299.99994
299.99994
299.99994
299.99994
299.99995
299.99994
299.99994
299.99994
299.99991
299.99991
299.99991
299.99991
299.99991
299.99991
299.99991
299.99991
299.99991
299.99991
299.99991
299.99991
299.99992
299.99991
299.99991
299.99991
299.99991
299.99991
299.9999
299.9999
299.9999
299.99991
299.99991
299.99991
299.99991
299.99991
299.99991
299.99991
299.99991
299.99986
299.99986
299.99986
299.99986
299.99986
299.99986
299.99986
299.99986
299.99986
299.99986
299.99991
299.99994
299.99994
299.99994
299.99994
299.99994
299.99994
299.99994
299.99994
299.99994
299.99994
299.9999
299.9999
299.99991
299.99991
299.99991
299.99991
299.99991
299.99992
299.99992
299.99991
299.99987
299.99987
299.99987
299.99987
299.99986
299.99986
299.99986
299.99986
299.99987
299.99987
299.99987
299.99987
299.99987
299.99988
299.99987
299.99987
299.99987
299.99987
299.99986
299.99986
299.99986
299.99986
299.99986
299.99986
299.99986
299.99987
299.99987
299.99987
299.99987
299.99981
299.9998
299.9998
299.9998
299.99979
299.99979
299.99979
299.99979
299.9998
299.9998
299.9998
299.99981
299.99987
299.99991
299.99991
299.99991
299.99991
299.99991
299.99991
299.99991
299.9999
299.99986
299.99986
299.99986
299.99986
299.99987
299.99987
299.99987
299.99987
299.99988
299.99988
299.99982
299.99981
299.99981
299.9998
299.99981
299.9998
299.9998
299.9998
299.9998
299.99981
299.9998
299.99981
299.99981
299.99982
299.99982
299.99981
299.99981
299.9998
299.9998
299.99979
299.99979
299.99979
299.99979
299.9998
299.9998
299.9998
299.99981
299.99981
299.99981
299.99973
299.99973
299.99972
299.99971
299.99972
299.9997
299.9997
299.9997
299.9997
299.99971
299.99971
299.99972
299.99973
299.99973
299.99981
299.99987
299.99987
299.99987
299.99986
299.99986
299.99986
299.9998
299.99979
299.99979
299.99979
299.9998
299.99981
299.9998
299.99981
299.99981
299.99982
299.99974
299.99974
299.99974
299.99972
299.99972
299.99972
299.99971
299.99971
299.99971
299.99971
299.99972
299.99972
299.99972
299.99973
299.99974
299.99974
299.99973
299.99972
299.99972
299.99972
299.99971
299.99971
299.99971
299.99971
299.99972
299.99971
299.99972
299.99973
299.99973
299.99963
299.99963
299.99962
299.99961
299.9996
299.9996
299.99959
299.99959
299.99959
299.99959
299.9996
299.9996
299.99961
299.99962
299.99963
299.99963
299.99973
299.99981
299.99981
299.9998
299.9998
299.99972
299.99972
299.99971
299.99971
299.99971
299.99971
299.99972
299.99972
299.99972
299.99974
299.99963
299.99964
299.99964
299.99963
299.99962
299.99961
299.99961
299.9996
299.9996
299.9996
299.9996
299.99961
299.99961
299.99962
299.99963
299.99964
299.99964
299.99963
299.99961
299.99961
299.99961
299.9996
299.99959
299.99959
299.99959
299.99961
299.9996
299.99961
299.99962
299.99949
299.99949
299.99949
299.99949
299.99947
299.99946
299.99946
299.99945
299.99945
299.99945
299.99945
299.99946
299.99946
299.99947
299.99948
299.99949
299.99949
299.99949
299.99962
299.99973
299.99972
299.99961
299.9996
299.99961
299.99959
299.99959
299.99959
299.9996
299.99961
299.99961
299.99962
299.99948
299.99949
299.9995
299.9995
299.99949
299.99948
299.99947
299.99947
299.99946
299.99946
299.99946
299.99946
299.99947
299.99947
299.99948
299.99949
299.9995
299.9995
299.99949
299.99948
299.99947
299.99947
299.99946
299.99946
299.99946
299.99946
299.99947
299.99947
299.99947
299.99932
299.99933
299.99934
299.99934
299.99933
299.99932
299.99931
299.99931
299.99931
299.9993
299.9993
299.99931
299.99931
299.99931
299.99932
299.99933
299.99933
299.99934
299.99933
299.99932
299.99947
299.99947
299.99947
299.99946
299.99946
299.99946
299.99946
299.99947
299.99947
299.99932
299.99933
299.99934
299.99935
299.99935
299.99934
299.99933
299.99932
299.99932
299.99931
299.99931
299.99931
299.99931
299.99932
299.99932
299.99933
299.99934
299.99934
299.99934
299.99933
299.99933
299.99932
299.99931
299.99931
299.99931
299.9993
299.99931
299.99931
299.99931
299.99917
299.99918
299.99917
299.99917
299.99917
299.99917
299.99918
299.99917
299.99916
299.99917
299.99916
299.99916
299.99917
299.99916
299.99916
299.99917
299.99917
299.99917
299.99917
299.99917
299.99918
299.99917
299.99931
299.99931
299.99931
299.99931
299.99931
299.99931
299.99932
299.99917
299.99917
299.99918
299.99918
299.99918
299.99918
299.99918
299.99919
299.99917
299.99917
299.99918
299.99917
299.99917
299.99918
299.99917
299.99917
299.99918
299.99918
299.99918
299.99918
299.99918
299.99918
299.99917
299.99917
299.99918
299.99917
299.99917
299.99918
299.99916
299.99908
299.99909
299.9991
299.99908
299.99907
299.99907
299.99908
299.99909
299.99908
299.99908
299.9991
299.9991
299.9991
299.9991
299.99908
299.99908
299.99909
299.99907
299.99907
299.99907
299.99908
299.9991
299.99909
299.99908
299.99916
299.99918
299.99917
299.99917
299.99918
299.99911
299.99909
299.99909
299.9991
299.99909
299.99908
299.99908
299.99909
299.9991
299.99909
299.99909
299.99911
299.9991
299.9991
299.99911
299.99908
299.99909
299.9991
299.99908
299.99907
299.99907
299.99908
299.9991
299.99909
299.99908
299.99911
299.9991
299.9991
299.99911
299.99916
299.99913
299.99913
299.99914
299.99911
299.9991
299.9991
299.99911
299.99914
299.99913
299.99912
299.99916
299.99915
299.99915
299.99916
299.99912
299.99913
299.99914
299.99911
299.9991
299.9991
299.99911
299.99914
299.99914
299.99913
299.99917
299.99911
299.9991
299.9991
299.99916
299.99917
299.99913
299.99914
299.99915
299.99912
299.99911
299.99911
299.99912
299.99915
299.99914
299.99913
299.99917
299.99916
299.99916
299.99917
299.99913
299.99914
299.99915
299.99912
299.9991
299.9991
299.99912
299.99914
299.99914
299.99913
299.99916
299.99916
299.99916
299.99936
299.99936
299.99933
299.99933
299.99934
299.99931
299.99929
299.99929
299.99931
299.99934
299.99933
299.99932
299.99936
299.99936
299.99936
299.99936
299.99932
299.99933
299.99933
299.99931
299.99929
299.99929
299.99931
299.99934
299.99934
299.99933
299.99937
299.99937
299.99916
299.99902
299.99887
299.99903
299.9989
299.99875
299.99897
299.99887
299.99881
299.99881
299.99887
299.99897
299.99914
299.99935
299.99934
299.99933
299.99937
299.99937
299.99937
299.99937
299.99933
299.99934
299.99934
299.99931
299.9993
299.9993
299.99931
299.99934
299.99934
299.99933
299.99936
299.99936
299.99969
299.99969
299.99969
299.99966
299.99967
299.99966
299.99964
299.99962
299.99962
299.99964
299.99966
299.99966
299.99966
299.99969
299.99969
299.99969
299.99969
299.99966
299.99966
299.99966
299.99963
299.99962
299.99962
299.99964
299.99967
299.99967
299.99966
299.9997
299.9997
299.9997
299.99937
299.99937
299.99934
299.99934
299.99935
299.99932
299.9993
299.9993
299.99932
299.99965
299.99967
299.99967
299.99967
299.9997
299.9997
299.9997
299.9997
299.99966
299.99967
299.99967
299.99964
299.99962
299.99962
299.99964
299.99967
299.99967
299.99966
299.99969
300.00011
300.00011
300.00011
300.00011
300.00008
300.00009
300.00008
300.00006
300.00004
300.00004
300.00006
300.00008
300.00009
300.00008
300.00011
300.00011
300.00011
300.00011
300.00008
300.00009
300.00008
300.00006
300.00004
300.00004
300.00006
300.00009
300.00009
300.00009
300.00012
300.00012
300.00012
300.00012
299.9997
299.99967
299.99968
299.99967
299.99965
299.99963
299.99963
300.00006
300.00007
300.00009
300.0001
300.00009
300.00012
300.00012
300.00012
300.00012
300.00009
300.00009
300.00009
300.00006
300.00005
300.00005
300.00006
300.00008
300.00009
300.00008
300.00058
300.0006
300.00061
300.00061
300.0006
300.00058
300.00058
300.00057
300.00056
300.00054
300.00054
300.00056
300.00057
300.00058
300.00058
300.0006
300.00061
300.00061
300.0006
300.00058
300.00059
300.00057
300.00056
300.00055
300.00055
300.00056
300.00058
300.00059
300.00059
300.00061
300.00061
300.00061
300.00061
300.00059
300.00009
300.0001
300.00009
300.00007
300.00006
300.00056
300.00055
300.00057
300.00058
300.00059
300.00059
300.0006
300.00061
300.00061
300.0006
300.00058
300.00059
300.00058
300.00056
300.00055
300.00055
300.00056
300.00057
300.00059
300.00111
300.00111
300.00112
300.00113
300.00113
300.00112
300.00111
300.00111
300.0011
300.00109
300.00109
300.00109
300.00109
300.0011
300.00111
300.00111
300.00112
300.00113
300.00113
300.00112
300.00111
300.00112
300.0011
300.00109
300.00109
300.00109
300.00109
300.0011
300.00112
300.00111
300.00112
300.00113
300.00113
300.00112
300.00112
300.00112
300.00059
300.00058
300.00057
300.0011
300.00109
300.00109
300.0011
300.0011
300.00112
300.00111
300.00112
300.00113
300.00113
300.00112
300.00111
300.00112
300.0011
300.00109
300.00109
300.00109
300.00109
300.0011
300.0016
300.00162
300.00162
300.00161
300.00162
300.00162
300.00161
300.00162
300.00162
300.0016
300.0016
300.0016
300.0016
300.0016
300.0016
300.00162
300.00162
300.00161
300.00163
300.00163
300.00161
300.00162
300.00162
300.0016
300.0016
300.0016
300.0016
300.0016
300.0016
300.00162
300.00162
300.00161
300.00162
300.00162
300.00161
300.00162
300.00162
300.0016
300.0011
300.00101
300.00094
300.0009
300.0009
300.00094
300.00101
300.00156
300.0016
300.00162
300.00161
300.00161
300.00162
300.00162
300.00161
300.00162
300.00162
300.0016
300.0016
300.0016
300.0016
300.0016
300.00204
300.00204
300.00206
300.00206
300.00205
300.00206
300.00206
300.00205
300.00206
300.00206
300.00204
300.00204
300.00205
300.00205
300.00204
300.00204
300.00206
300.00206
300.00205
300.00206
300.00206
300.00205
300.00206
300.00206
300.00204
300.00204
300.00205
300.00205
300.00204
300.00204
300.00206
300.00206
300.00205
300.00206
300.00206
300.00205
300.00205
300.00205
300.00204
300.00204
300.0016
300.0016
300.0016
300.0016
300.00204
300.00204
300.00205
300.00205
300.00205
300.00206
300.00206
300.00205
300.00205
300.00205
300.00204
300.00204
300.00204
300.00204
300.00241
300.00241
300.00241
300.00242
300.00243
300.00242
300.00243
300.00243
300.00242
300.00243
300.00243
300.00241
300.00241
300.00242
300.00242
300.00242
300.00241
300.00243
300.00243
300.00242
300.00243
300.00243
300.00242
300.00243
300.00243
300.00241
300.00242
300.00242
300.00242
300.00241
300.00241
300.00242
300.00242
300.00241
300.00242
300.00242
300.00241
300.00242
300.00242
300.0024
300.00241
300.00241
300.00204
300.00204
300.00241
300.00241
300.0024
300.00242
300.00242
300.00241
300.00242
300.00242
300.00241
300.00242
300.00242
300.0024
300.00241
300.00241
300.00271
300.00271
300.0027
300.0027
300.00272
300.00272
300.00271
300.00272
300.00272
300.00271
300.00272
300.00272
300.0027
300.00271
300.00272
300.00272
300.00271
300.00271
300.00272
300.00273
300.00271
300.00272
300.00272
300.00271
300.00273
300.00272
300.00271
300.00271
300.00272
300.00271
300.00271
300.0027
300.00272
300.00272
300.00271
300.00271
300.00271
300.0027
300.00272
300.00271
300.0027
300.0027
300.00271
300.00271
300.0027
300.0027
300.00271
300.00272
300.00271
300.00271
300.00271
300.00271
300.00272
300.00271
300.0027
300.0027
300.00292
300.00293
300.00293
300.00292
300.00292
300.00293
300.00294
300.00293
300.00294
300.00294
300.00293
300.00295
300.00294
300.00293
300.00293
300.00294
300.00294
300.00294
300.00293
300.00294
300.00295
300.00294
300.00294
300.00294
300.00293
300.00295
300.00294
300.00293
300.00293
300.00294
300.00294
300.00293
300.00292
300.00294
300.00294
300.00293
300.00293
300.00293
300.00293
300.00294
300.00293
300.00292
300.00292
300.00293
300.00293
300.00293
300.00292
300.00293
300.00294
300.00293
300.00293
300.00293
300.00293
300.00294
300.00293
300.00292
300.00307
300.00307
300.00308
300.00308
300.00307
300.00307
300.00309
300.00309
300.00308
300.00309
300.00309
300.00309
300.0031
300.0031
300.00308
300.00309
300.0031
300.0031
300.00309
300.00309
300.0031
300.0031
300.00309
300.00309
300.00309
300.00309
300.0031
300.0031
300.00308
300.00309
300.0031
300.00309
300.00309
300.00308
300.00309
300.0031
300.00308
300.00309
300.00308
300.00308
300.00309
300.00308
300.00307
300.00308
300.00308
300.00309
300.00308
300.00308
300.00309
300.00309
300.00308
300.00308
300.00308
300.00308
300.00309
300.00308
300.00317
300.00316
300.00317
300.00317
300.00317
300.00317
300.00316
300.00317
300.00318
300.00317
300.00318
300.00318
300.00318
300.00319
300.00319
300.00318
300.00319
300.00319
300.00319
300.00319
300.00318
300.00319
300.00319
300.00318
300.00318
300.00318
300.00318
300.00319
300.00319
300.00318
300.00319
300.00319
300.00319
300.00319
300.00318
300.00319
300.00319
300.00318
300.00318
300.00317
300.00317
300.00318
300.00317
300.00316
300.00317
300.00318
300.00318
300.00318
300.00317
300.00318
300.00319
300.00318
300.00318
300.00318
300.00317
300.00318
300.00322
300.00321
300.0032
300.00321
300.00322
300.00322
300.00321
300.0032
300.00321
300.00322
300.00321
300.00321
300.00321
300.00322
300.00323
300.00323
300.00322
300.00324
300.00324
300.00324
300.00324
300.00322
300.00323
300.00324
300.00322
300.00322
300.00322
300.00322
300.00324
300.00323
300.00322
300.00324
300.00324
300.00324
300.00324
300.00322
300.00323
300.00323
300.00322
300.00321
300.00321
300.00321
300.00322
300.00321
300.0032
300.00322
300.00323
300.00324
300.00323
300.00322
300.00322
300.00323
300.00322
300.00321
300.00321
300.00321
300.00322
300.00323
300.00322
300.00321
300.00322
300.00323
300.00323
300.00322
300.00321
300.00322
300.00323
300.00322
300.00322
300.00322
300.00322
300.00324
300.00324
300.00323
300.00324
300.00325
300.00325
300.00325
300.00323
300.00324
300.00324
300.00322
300.00322
300.00322
300.00322
300.00324
300.00324
300.00323
300.00325
300.00325
300.00325
300.00324
300.00323
300.00324
300.00324
300.00322
300.00322
300.00322
300.00322
300.00322
300.00321
300.0032
300.00323
300.00324
300.00325
300.00324
300.00323
300.00324
300.00324
300.00322
300.00323
300.00322
300.00318
300.00318
300.00321
300.00322
300.0032
300.00323
300.00323
300.00323
300.00322
300.0032
300.00322
300.00321
300.00318
300.00318
300.00318
300.00319
300.00322
300.00319
300.00321
300.00324
300.00325
300.00325
300.00324
300.00321
300.00319
300.00322
300.00319
300.00318
300.00318
300.00319
300.00322
300.00319
300.00321
300.00324
300.00325
300.00325
300.00324
300.00321
300.00319
300.00322
300.0032
300.00318
300.00318
300.00318
300.00321
300.00316
300.00316
300.0032
300.00323
300.00325
300.00324
300.00321
300.0032
300.00322
300.00319
300.00319
300.00317
300.00317
300.00318
300.00322
300.00321
300.00321
300.00322
300.00322
300.00321
300.0032
300.00322
300.00318
300.00316
300.00316
300.00317
300.00321
300.00319
300.0032
300.00323
300.00325
300.00325
300.00323
300.0032
300.00319
300.00321
300.00318
300.00316
300.00316
300.00318
300.00321
300.00319
300.0032
300.00323
300.00325
300.00325
300.00323
300.0032
300.00319
300.00321
300.00318
300.00317
300.00317
300.00318
300.00321
300.00317
300.00316
300.00321
300.00324
300.00325
300.00324
300.0032
300.0032
300.00322
300.00318
300.00319
300.00319
300.0033
300.00353
300.00387
300.00426
300.00451
300.00447
300.00418
300.00382
300.00351
300.0033
300.00319
300.00319
300.00331
300.00352
300.00403
300.00485
300.00573
300.0063
300.00634
300.00582
300.00492
300.00405
300.00351
300.0033
300.00319
300.00319
300.00315
300.00315
300.00319
300.00321
300.00316
300.00321
300.00319
300.0033
300.00321
300.00316
300.00321
300.00316
300.00315
300.00319
300.00319
300.00332
300.00331
300.0034
300.00357
300.00368
300.00364
300.00347
300.00337
300.0033
300.00319
300.00319
300.00315
300.00315
300.00318
300.00316
300.00319
300.00321
300.0032
300.0033
300.00337
300.00322
300.00314
300.0032
300.00318
300.0032
300.00314
300.00316
300.00316
300.00314
300.00322
300.00329
300.00322
300.00324
300.00328
300.00321
300.00325
300.00334
300.00335
300.00332
300.00322
300.00323
300.00318
300.00322
300.00325
300.00318
300.00323
300.00318
300.00321
300.00332
300.00333
300.00329
300.0034
300.00332
300.00326
300.00332
300.00325
300.00325
300.00321
300.00325
300.00321
300.00325
300.00331
300.00344
300.00331
300.00325
300.00329
300.00323
300.00327
300.00332
300.00326
300.00329
300.00335
300.00337
300.00337
300.00373
300.00359
300.00341
300.00391
300.00353
300.00349
300.00382
300.00431
300.00356
300.00367
300.00468
300.00473
300.00439
300.00674
300.00528
300.00412
300.00353
300.00331
300.00332
300.00349
300.00382
300.0034
300.00328
300.00329
300.00318
300.00321
300.00321
300.00321
300.0032
300.00317
300.00329
300.00332
300.00335
300.00335
300.00332
300.00333
300.00336
300.00367
300.00357
300.00354
300.00347
300.00413
300.00569
300.00813
300.00822
300.00827
300.00829
300.00825
300.00816
300.00776
300.00694
300.00622
300.00623
300.00695
300.00777
300.00818
300.00828
300.00832
300.00832
300.00828
300.00819
300.00779
300.00698
300.00627
300.00627
300.00497
300.0039
300.00341
300.00323
300.00323
300.00333
300.00337
300.00337
300.00332
300.00322
300.00323
300.0034
300.00387
300.0049
300.00618
300.00618
300.00689
300.00768
300.00806
300.00814
300.00818
300.00816
300.00813
300.00807
300.00771
300.00693
300.00621
300.00621
300.00692
300.00771
300.00849
300.00743
300.005
300.00058
299.99631
299.99355
299.99359
299.99643
300.00075
300.00513
300.0075
300.00849
300.00771
300.00583
300.00428
300.00358
300.00372
300.00458
300.00641
300.00823
300.00813
300.00844
300.00631
300.00087
299.9971
299.99326
299.9904
299.98751
299.98569
299.98453
299.98451
299.98561
299.98739
299.99024
299.99306
299.99689
300.00064
299.99307
299.98893
299.9855
299.98252
299.9804
299.97923
299.97925
299.98048
299.98264
299.98567
299.98915
299.99332
299.9905
299.9967
300.00449
300.00832
300.00806
300.00828
300.0083
300.00643
300.00459
300.00372
300.00359
300.00431
300.00588
300.00818
300.00826
300.00835
300.00807
300.00348
300.00347
299.99396
299.98586
299.98765
299.9827
299.98571
299.98206
299.97908
299.97681
299.97556
299.97553
299.97673
299.97895
299.98188
299.98547
299.99023
299.99639
299.98735
299.98246
299.9789
299.97597
299.97371
299.97247
299.97252
299.97381
299.97611
299.9791
299.97684
299.98056
299.97934
299.98472
299.98471
299.99396
299.98583
299.9805
299.97933
299.97556
299.9756
299.9725
299.97381
299.97146
299.97012
299.97007
299.97135
299.97365
299.97664
299.9803
299.98555
299.99361
299.9844
299.97908
299.97539
299.97235
299.96999
299.96868
299.96872
299.97011
299.97006
299.97248
299.97372
299.97677
299.97901
299.98264
299.98762
299.99671
300.00453
300.00638
300.00851
300.00858
300.00778
300.00698
300.00788
300.00825
300.00761
300.00528
300.00095
299.99334
299.99048
299.98566
299.98198
299.97898
299.976
299.97369
299.97136
299.97003
299.96869
299.96864
299.96997
299.97235
299.97538
299.97908
299.9844
299.99362
299.98554
299.98028
299.97662
299.97363
299.97129
299.97
299.97238
299.9724
299.97546
299.97671
299.98043
299.9826
299.98564
299.98914
299.99333
299.99718
300.00095
299.99669
299.99046
299.98757
299.98575
299.9846
299.97921
299.97919
299.97544
299.97666
299.97365
299.97593
299.97888
299.98245
299.98737
299.99645
299.99028
299.9855
299.98187
299.97892
299.98254
299.98039
299.98572
299.98459
299.9939
299.99391
300.00349
300.00454
300.00639
300.00761
300.00859
300.00789
300.00714
300.00733
300.00816
300.0093
300.00929
300.00951
300.00927
300.00925
300.00946
300.00923
300.0092
300.00804
300.0069
300.0078
300.00705
300.00778
300.00845
300.00836
300.00815
300.00781
300.00779
300.0081
300.00833
300.00844
300.00779
300.00708
300.00781
300.00811
300.00738
300.00606
300.00412
300.00304
300.00308
300.00421
300.00615
300.00745
300.00814
300.00837
300.00802
300.00913
300.00911
300.00927
300.009
300.00898
300.00922
300.00908
300.00913
300.00803
300.00723
300.00735
300.00805
300.00835
300.00799
300.00913
300.00685
300.00504
300.00811
300.00411
299.99431
299.99737
300.00166
300.00614
300.00802
300.00919
300.00917
300.00922
300.00842
300.00618
300.00432
300.00832
300.00807
300.00327
300.00329
300.00808
300.00837
300.00439
300.00629
300.00079
299.99706
299.99323
299.99039
299.98752
299.99665
300.00088
300.00521
300.00756
300.00857
300.0085
300.00929
300.00952
300.00928
300.00926
300.00946
300.00829
300.00522
300.00694
300.00172
299.99695
299.99707
299.99491
299.993
299.99305
299.98853
299.99306
299.99301
299.9887
299.98457
299.9895
299.99
299.98706
299.98634
299.98604
299.98128
299.98162
299.98486
299.98103
299.98484
299.99
299.99747
299.98948
299.98602
299.98455
299.98122
299.98629
299.98703
299.98157
299.97917
299.98502
299.9944
300.00432
300.00435
300.00832
300.00528
300.00704
300.00927
300.00927
300.00814
300.00631
300.00183
299.99751
299.99441
299.98379
299.9838
299.98261
299.98392
299.98039
299.97845
299.97709
299.97783
299.97384
299.97524
299.97778
299.97659
299.98037
299.97664
299.97782
299.97446
299.97278
299.96977
299.97386
299.97856
299.984
299.98508
299.9839
299.98273
299.9805
299.97725
299.97798
299.97927
299.97532
299.97398
299.97231
299.96812
299.97042
299.97186
299.96907
299.9718
299.96971
299.97377
299.97215
299.96799
299.97029
299.96749
299.96466
299.96651
299.96474
299.96756
299.96593
299.96282
299.95956
299.9618
299.96578
299.97083
299.97259
299.97567
299.97994
299.97942
299.97444
299.96949
299.97439
299.97563
299.97113
299.96768
299.96557
299.9711
299.96902
299.96339
299.96118
299.96824
299.98034
299.99683
300.00029
300.00444
300.00837
300.00686
300.0028
299.9986
299.99545
299.9955
300.00815
300.00414
300.00512
300.00692
300.00914
300.00804
300.00624
300.00179
299.99749
299.99435
299.98392
299.98276
299.98056
299.98407
299.98516
299.97935
299.97801
299.97728
299.97864
299.98141
299.98646
299.98718
299.99016
299.98965
299.9862
299.98473
299.98502
299.98175
299.97795
299.97541
299.97402
299.97234
299.97395
299.96988
299.96817
299.97048
299.97196
299.9746
299.97292
299.97676
299.98054
299.98122
299.97796
299.97677
299.97395
299.96986
299.96663
299.96479
299.96762
299.96918
299.9676
299.96598
299.96288
299.9648
299.96815
299.97045
299.97195
299.97543
299.97403
299.97234
299.97732
299.97868
299.98144
299.98476
299.98889
299.99318
299.99323
299.99713
300.00187
299.99725
299.99509
299.99321
299.99328
299.98873
299.98505
299.99024
299.99766
299.98971
299.98624
299.98653
299.98729
299.98179
299.9794
299.98529
299.9946
299.98416
299.98062
299.98285
299.98407
299.97806
299.97805
299.974
299.97042
299.96757
299.96596
299.96591
299.96747
299.97029
299.97383
299.97782
299.97707
299.9826
299.98037
299.98389
299.98501
299.97913
299.97841
299.98117
299.98627
299.98703
299.98153
299.98483
299.99002
299.98948
299.98598
299.98451
299.9803
299.97652
299.97371
299.97213
299.96797
299.96965
299.97176
299.97521
299.97773
299.97439
299.97268
299.97654
299.97776
299.981
299.98487
299.98556
299.98901
299.99317
299.99313
299.99305
299.99497
299.98871
299.98857
299.99317
300.00186
299.99707
299.99717
299.99307
299.98953
299.98455
299.98602
299.98123
299.9816
299.98714
299.99759
299.9901
299.98635
299.98398
299.97847
299.97373
299.96965
299.96643
299.96464
299.9628
299.96465
299.96748
299.969
299.97176
299.97032
299.96799
299.97216
299.97386
299.97522
299.9792
299.9779
299.97714
299.98042
299.98268
299.99452
299.98513
299.98393
299.98394
299.97792
299.97389
299.97035
299.96752
299.9647
299.96285
299.96474
299.96652
299.9691
299.97186
299.96976
299.9681
299.97231
299.97386
299.97535
299.97786
299.97448
299.97183
299.96973
299.96803
299.97219
299.9738
299.97528
299.97784
299.97662
299.97278
299.97665
299.98041
299.98111
299.98497
299.98171
299.97934
299.97861
299.97729
299.98057
299.98284
299.99459
299.98406
299.98525
299.98411
299.98645
299.98134
299.98612
299.98465
299.98963
299.99764
299.98724
299.99019
299.99326
299.98868
299.98495
299.98166
299.97926
299.97851
299.97715
299.98044
299.9827
299.99453
299.98517
299.98401
299.98639
299.98129
299.98608
299.98463
299.9896
299.99762
299.98718
299.99016
299.99325
300.0019
299.99315
299.98882
299.99504
299.99317
300.00191
299.99717
299.99725
300.00634
300.00703
300.003
299.9988
299.99566
299.99567
299.99884
300.00299
300.00694
300.00293
299.99872
300.0004
299.99688
299.98041
299.98694
299.98832
300.00231
300.01057
300.00759
300.00465
300.00365
300.00335
300.00335
300.00368
300.00351
300.00352
300.00327
300.00325
300.00338
300.00331
300.00348
300.00379
300.00427
300.00432
300.00469
300.00746
300.00747
300.00761
300.00661
300.00507
300.00396
300.00507
300.00527
300.00487
300.00382
300.00339
300.0034
300.00388
300.00433
300.00432
300.00469
300.00463
300.00433
300.00619
300.0062
300.00433
300.00353
300.00353
300.00364
300.00364
300.00368
300.00336
300.00333
300.00357
300.00355
300.00347
300.00414
300.00571
300.00489
300.00383
300.00339
300.0033
300.00352
300.00406
300.00494
300.00587
300.00644
300.00645
300.00588
300.00496
300.00409
300.00354
300.00331
300.00319
300.00319
300.0033
300.00354
300.0039
300.0043
300.00459
300.00459
300.0043
300.00389
300.00353
300.0033
300.00318
300.00319
300.00315
300.00315
300.00319
300.00321
300.00321
300.00316
300.00318
300.00325
300.00332
300.00341
300.00328
300.00327
300.00331
300.00335
300.00335
300.00331
300.00326
300.00322
300.00313
300.00297
300.00295
300.00297
300.00296
300.00312
300.00314
300.00312
300.00296
300.00296
300.00292
300.00297
300.00314
300.00315
300.00313
300.00297
300.00298
300.00315
300.00317
300.003
300.00295
300.00294
300.00295
300.0029
300.00321
300.00314
300.00331
300.00348
300.0037
300.00337
300.00351
300.00336
300.00344
300.00361
300.00454
300.00415
300.00385
300.0042
300.00375
300.00322
300.00318
300.00344
300.003
300.00318
300.00508
300.00406
300.00311
300.00284
300.00292
300.00314
300.00314
300.00325
300.00331
300.00344
300.00331
300.00349
300.00329
300.00337
300.00371
300.00419
300.00351
300.00338
300.00326
300.00329
300.00318
300.00315
300.00299
300.003
300.00297
300.00295
300.00319
300.00315
300.00322
300.00291
300.00303
300.00349
300.0039
300.0043
300.00347
300.00363
300.00461
300.00785
300.00652
300.00484
300.0038
300.00352
300.00435
300.00482
300.00775
300.0079
300.01058
300.01054
300.0022
300.0062
300.00943
300.01064
300.00663
300.0067
300.00749
300.00768
300.01071
300.00226
300.00625
300.00451
300.00287
299.99871
300.00038
299.98675
299.99639
299.9984
300.00089
300.00835
300.01121
300.00838
300.00456
299.99011
299.98811
299.9808
299.99888
299.9969
299.99555
299.99555
299.99691
299.98018
299.98021
299.97035
299.97418
299.97968
299.98678
299.98815
299.99017
300.00453
300.00087
299.99884
299.98096
299.98225
299.96724
299.97266
299.98038
299.97939
299.97965
299.97908
299.97299
299.97422
299.96819
299.96671
299.97293
299.96874
299.96158
299.9636
299.9655
299.97099
299.97248
299.96762
299.96564
299.97066
299.96884
299.96324
299.96103
299.96804
299.96605
299.95866
299.95257
299.95586
299.96166
299.96886
299.97046
299.96367
299.95855
299.96119
299.96387
299.96172
299.9587
299.95617
299.95878
299.95576
299.95266
299.95883
299.96626
299.96576