/*--------------------------------*- C++ -*----------------------------------*\
  =========                 |
  \\      /  F ield         | OpenFOAM: The Open Source CFD Toolbox
   \\    /   O peration     | Website:  https://openfoam.org
    \\  /    A nd           | Version:  7
     \\/     M anipulation  |
\*---------------------------------------------------------------------------*/
FoamFile
{
    version     2.0;
    format      ascii;
    class       volScalarField;
    location    "10";
    object      k;
}
// * * * * * * * * * * * * * * * * * * * * * * * * * * * * * * * * * * * * * //

dimensions      [0 2 -2 0 0 0 0];

internalField   nonuniform List<scalar> 
24789
(
315.51168
768.26893
1134.6341
1466.9728
3337.1474
3331.407
1465.5418
1133.2042
767.02341
315.04296
314.56427
765.52891
1130.8286
1462.5626
3327.681
3325.7813
1462.543
1130.8175
765.41384
314.51421
314.33668
764.81064
1129.7223
1461.1171
3324.761
3324.4639
1462.173
1130.5385
765.23552
314.45952
314.30594
764.70479
1129.5489
1460.8729
3324.1211
3324.0572
1461.9812
1130.3839
765.13023
314.42548
314.24058
764.52536
1129.3223
1460.648
3323.9299
3323.838
1461.5166
1129.9662
764.82512
314.32059
314.13734
764.22327
1128.9044
1460.1727
3323.3909
3323.0975
1460.7975
1129.3786
764.42264
314.18823
314.01838
763.86301
1128.3869
1459.5568
3322.5697
3322.231
1460.1582
1128.8429
764.05024
314.06612
313.89371
763.4749
1127.8208
1458.8736
3321.6066
3321.3504
1459.5882
1128.3776
763.73926
313.97147
313.84982
763.30836
1127.5449
1458.5109
3321.0545
3321.2182
1459.5663
1128.4022
763.79468
314.00696
313.93574
763.49103
1127.7375
1458.681
3321.3762
3321.9964
1460.0244
1128.7862
764.08757
314.12275
314.0399
763.76444
1128.1122
1459.1701
3322.8325
3324.4299
1460.7171
1129.2734
764.42594
314.24951
314.25555
764.37345
1129.023
1460.4806
3326.7327
3330.8957
1463.0049
1130.9137
765.53567
314.63973
314.99202
766.5141
1132.1989
1464.8207
3337.4659
3347.878
1470.3999
1136.4549
769.29644
315.93339
317.08382
772.57663
1141.0803
1476.4552
3362.7211
3383.3579
1487.686
1149.9474
778.63846
319.18001
321.77544
786.19804
1160.4778
1500.8384
3410.143
3443.9247
1521.1791
1176.8228
797.62736
325.54642
328.96669
808.95887
1193.1387
1541.7668
3484.7984
3533.1445
1566.2677
1212.7206
822.22014
333.12826
341.83958
842.32357
1242.2078
1602.8835
3587.9484
3648.4692
1656.8226
1289.4587
877.90971
355.80529
364.94768
900.13081
1316.6046
1682.8066
3709.9708
3776.3573
1760.8385
1392.4921
961.1075
391.42356
416.83343
1045.1383
1513.1649
1906.9683
3808.4633
3825.6599
1651.567
1310.6031
907.59731
372.80149
354.79287
861.18267
1254.5917
1600.2875
3761.0927
3699.3297
1524.4871
1187.6178
809.77546
334.54346
323.114
781.81448
1148.4522
1479.9223
3639.9804
3586.5424
1447.2431
1121.4306
762.21013
315.41704
310.39353
747.43836
1101.0183
1422.8819
3539.4684
3499.8041
1401.7551
1084.0648
735.36345
306.28053
303.11653
725.98537
1070.5727
1384.8182
3467.0435
3441.3645
1373.8527
1062.0297
719.93204
301.03419
299.49694
715.30825
1055.0257
1364.6746
3421.1199
3406.6738
1359.5055
1051.1968
712.61152
298.54289
297.88703
710.53081
1047.8464
1354.9406
3396.2471
3390.1585
1353.4436
1046.8094
709.70075
297.56311
297.32659
708.86608
1045.3209
1351.3752
3385.9026
3383.7422
1351.2637
1045.2635
708.67082
297.20985
297.10461
708.2494
1044.4352
1350.1703
3382.1458
3381.1502
1350.3438
1044.5392
708.14872
297.0178
296.96034
707.88493
1043.9737
1349.6516
3380.7211
3380.3199
1350.1023
1044.2887
707.92904
296.92134
296.87617
707.69994
1043.7578
1349.4337
3380.0997
3380.8432
1350.4875
1044.5758
708.09753
296.95864
297.00498
708.09689
1044.3151
1350.0616
3381.0016
3381.9137
1351.1566
1045.1815
708.53741
297.10632
297.13016
708.46853
1044.8359
1350.6603
3381.7777
3382.2388
1351.4482
1045.4313
708.71351
297.16431
297.13748
708.50758
1044.9122
1350.7808
3381.9873
3382.4325
1351.595
1045.4924
708.72372
297.15681
297.12549
708.50778
1044.9615
1350.9137
3382.5375
3382.1583
1351.5966
1045.4707
708.69506
297.14016
297.12816
708.52689
1044.9886
1350.9363
3382.5265
3382.4699
1351.4365
1045.3529
708.61622
297.11153
297.08531
708.42079
1044.8646
1350.8257
3382.3945
3382.9113
1351.5404
1045.3868
708.60975
297.09928
297.17346
708.72527
1045.3681
1351.5353
3384.1493
3387.9207
1353.7581
1047.0963
709.73096
297.45858
297.98099
711.09481
1048.7748
1355.6585
3393.2107
3407.47
1362.4896
1054.1569
714.61846
299.10267
298.08285
711.49198
1049.4871
1356.8311
3397.1103
3391.3999
1354.9021
1047.7876
710.12715
297.57172
297.32327
709.20049
1046.1205
1352.6409
3388.2944
3386.5412
1352.6093
1045.9941
708.92708
297.17722
297.02995
708.33659
1044.8828
1351.1343
3385.5194
3384.437
1351.2347
1044.8522
708.12752
296.90721
296.81578
707.69065
1043.9495
1350.0104
3383.6177
3383.0078
1350.4513
1044.2111
707.69039
296.76551
296.73814
707.43782
1043.5627
1349.5246
3382.7323
3382.7066
1350.3161
1044.072
707.58792
296.73399
296.71119
707.351
1043.4577
1349.4515
3382.8973
3383.4262
1350.3518
1044.0889
707.60215
296.74677
296.77809
707.5317
1043.7194
1349.7821
3383.5214
3383.5283
1350.5176
1044.2391
707.72096
296.79766
296.81492
707.60273
1043.7739
1349.7827
3383.4188
3383.2349
1350.4118
1044.2464
707.78035
296.83797
296.87146
707.68562
1043.8072
1349.7187
3383.2031
3383.4046
1350.5107
1044.3283
707.85807
296.88031
296.87848
707.68541
1043.8011
1349.7773
3384.2818
3386.2389
1351.1437
1044.6888
708.07701
296.95846
297.10715
708.36756
1044.9017
1351.4792
3389.8864
3395.4382
1354.2881
1046.8992
709.51842
297.4465
297.99406
710.99546
1048.8566
1356.8915
3403.9058
3416.0593
1362.7535
1053.2605
713.80245
298.90048
300.16655
717.37897
1058.2869
1369.2633
3432.7674
3454.701
1379.9088
1066.5548
722.89718
302.02027
304.44766
729.87733
1076.3095
1392.129
3482.0245
3515.0012
1409.9745
1090.7671
740.01175
307.89573
312.30119
752.86596
1108.6004
1431.7534
3553.3081
3597.1063
1456.0314
1129.1083
767.71497
317.22009
324.40822
786.58178
1154.5972
1486.0421
3645.5353
3698.7691
1533.3282
1196.0579
815.58711
338.01407
361.02334
876.26782
1274.3483
1623.4863
3753.7119
3812.2154
1618.8088
1284.217
888.95508
363.76205
408.82817
1026.592
1488.9086
1878.4001
3789.1661
3703.497
1709.8125
1337.4692
914.36095
370.19683
376.17008
921.60993
1343.2821
1710.9065
3653.6047
3602.4501
1628.0497
1271.605
867.23467
354.84639
339.05553
832.95224
1224.8601
1575.9424
3549.4492
3502.5013
1544.2138
1199.2454
815.22966
331.79887
328.52855
804.11952
1182.9625
1523.8435
3460.2979
3422.9306
1504.1451
1167.353
793.2401
325.20357
321.83354
783.11337
1152.9606
1486.3211
3391.302
3365.024
1473.4526
1142.7873
775.90716
319.37881
317.40617
770.17014
1134.4174
1462.8769
3344.3779
3328.7621
1456.0724
1129.2583
766.5821
316.15774
315.15002
763.59034
1124.7462
1450.2412
3317.0247
3309.76
1447.6453
1122.9122
762.28222
314.68388
314.25374
760.96217
1120.8153
1444.8856
3304.2513
3301.0147
1444.1752
1120.4046
760.61567
314.11315
313.94314
760.07887
1119.4973
1443.0331
3299.1829
3298.227
1443.2132
1119.7182
760.14234
313.9396
313.86092
759.87397
1119.2176
1442.6406
3297.7194
3297.6258
1443.2782
1119.7919
760.18156
313.93864
313.901
760.03548
1119.4696
1442.9342
3297.8625
3297.895
1443.652
1120.1109
760.39408
313.99999
313.98184
760.29478
1119.8464
1443.3737
3298.3029
3298.2501
1443.97
1120.3843
760.58444
314.05879
313.99643
760.35374
1119.9374
1443.49
3298.4126
3298.4473
1443.9591
1120.3507
760.54683
314.03877
313.95483
760.25447
1119.8196
1443.3806
3298.3534
3298.3326
1443.853
1120.2381
760.45069
313.99718
313.93184
760.2089
1119.7679
1443.3267
3298.2704
3299.6058
1444.5568
1120.804
760.82646
314.11388
314.14177
760.84264
1120.6853
1444.4343
3300.1748
3301.3285
1445.5225
1121.592
761.3722
314.29819
314.35561
761.50339
1121.697
1445.7703
3302.8374
3305.6375
1447.7183
1123.2679
762.47368
314.65504
315.16151
763.91296
1125.1979
1450.0692
3311.0925
3321.7944
1456.2014
1130.496
767.6266
316.42431
317.11988
773.05198
1141.5037
1475.2094
3349.5676
3337.7136
1468.8252
1135.7393
768.69767
315.58774
314.74594
766.12152
1131.7968
1463.9458
3331.0394
3327.9918
1463.3971
1131.3922
765.75413
314.61638
314.41732
765.08464
1130.1858
1461.7838
3326.3242
3325.2778
1462.119
1130.4822
765.19082
314.44251
314.28692
764.6666
1129.5167
1460.8618
3324.4411
3323.5953
1461.4598
1129.9375
764.81355
314.31483
314.11643
764.15931
1128.794
1460.011
3323.273
3323.0877
1460.7678
1129.3634
764.41562
314.18304
314.0186
763.86713
1128.375
1459.5149
3322.5383
3322.2681
1460.3356
1128.9371
764.09304
314.06945
313.87018
763.43048
1127.7771
1458.8694
3321.9377
3321.8195
1459.8451
1128.4662
763.74586
313.95396
313.81474
763.26494
1127.5769
1458.7106
3321.9373
3321.6977
1459.7068
1128.3385
763.65855
313.93191
313.81891
763.23783
1127.5031
1458.5808
3321.7459
3321.654
1459.4015
1128.1471
763.56809
313.91946
313.81402
763.18412
1127.3901
1458.4369
3321.9669
3322.6758
1459.5051
1128.159
763.5748
313.93057
313.88526
763.36884
1127.6883
1458.9885
3324.5761
3327.9378
1461.0864
1129.2198
764.27198
314.17744
314.4598
765.04237
1130.2059
1462.5122
3333.6578
3342.4501
1467.5228
1133.9765
767.46579
315.26892
316.20872
770.14321
1137.7224
1472.4399
3355.4182
3373.0712
1482.4267
1145.5112
775.3773
318.00324
320.14235
781.51178
1154.1605
1493.347
3396.7778
3425.6993
1510.0931
1167.7459
791.04463
323.4241
327.16101
802.29714
1183.4679
1529.4755
3460.2783
3500.0988
1552.7277
1202.2154
815.26166
331.13207
334.09538
825.71414
1217.8295
1572.6193
3545.0618
3594.1463
1604.7984
1243.1703
842.29583
341.34535
354.22733
872.26348
1282.4596
1648.463
3648.5474
3698.4794
1685.8484
1318.5298
902.06846
366.34762
383.59414
941.07349
1365.0736
1729.2384
3755.1972
3786.0811
1886.917
1495.7584
1032.5611
413.09628
3626.5538
2082.361
1656.6418
1148.8012
460.03202
411.15809
1030.0178
1500.6975
1907.8755
3797.2794
3857.372
1718.9723
1368.143
950.59355
389.22535
382.46598
943.59414
1373.2014
1746.1909
3756.2821
3715.1857
1756.6208
1379.1778
945.63638
382.73017
373.82443
919.26171
1340.4166
1706.3469
3661.2095
3604.7955
1631.3356
1274.9386
870.49492
355.06475
340.13156
835.26958
1227.2125
1578.0298
3549.1489
3499.4363
1543.3992
1198.7398
815.11836
331.99491
327.89429
802.17956
1180.1265
1520.3687
3455.5338
3417.5882
1500.6746
1164.4262
791.1712
324.46488
321.1197
781.04469
1149.9878
1482.7014
3385.5988
3359.9897
1470.3284
1140.2135
774.10825
318.75453
316.83281
768.49103
1131.9818
1459.8632
3339.568
3324.5076
1453.427
1127.1074
765.08672
315.64342
314.69344
762.26147
1122.8352
1447.8909
3313.4289
3306.1508
1445.2716
1120.941
760.89488
314.20468
313.77013
759.57234
1118.8634
1442.5736
3300.9455
3298.1269
1441.9887
1118.5017
759.23383
313.62551
313.43183
758.62411
1117.4852
1440.7132
3296.1681
3295.1668
1441.0498
1117.82
758.75923
313.44904
313.36475
758.46649
1117.2672
1440.3839
3294.9025
3294.8214
1441.1404
1117.9149
758.81166
313.45288
313.41685
758.65458
1117.5495
1440.7038
3295.0213
3295.2878
1441.8755
1118.5583
759.26349
313.59772
313.60625
759.21133
1118.3067
1441.5273
3295.8148
3296.1442
1442.4918
1119.1135
759.66894
313.73626
313.66091
759.38225
1118.5587
1441.8421
3296.206
3296.525
1442.6201
1119.1805
759.69476
313.73695
313.62149
759.29053
1118.4548
1441.7565
3296.3174
3296.6006
1442.4182
1118.9885
759.54381
313.67724
313.59882
759.25955
1118.4527
1441.8056
3296.6158
3297.1311
1442.5923
1119.0989
759.59645
313.68484
313.66183
759.48103
1118.8189
1442.3121
3297.5621
3298.6226
1443.3457
1119.6437
759.93473
313.78721
313.80297
759.94256
1119.5641
1443.3555
3299.8477
3302.5948
1445.1462
1121.0025
760.81754
314.06862
314.54533
762.16823
1122.7981
1447.3187
3307.4443
3319.0568
1453.7785
1128.387
766.08821
315.87628
297.94126
711.09268
1048.902
1356.0879
3396.763
3389.5477
1353.224
1046.2934
709.01679
297.17304
296.85077
707.88169
1044.3437
1350.6604
3385.6597
3383.6386
1350.2903
1043.9826
707.47124
296.66954
296.66257
707.27018
1043.3755
1349.3402
3382.4738
3381.6173
1349.6066
1043.5214
707.20083
296.59203
296.59221
707.02356
1042.9533
1348.7159
3380.978
3380.4099
1348.9834
1043.0699
706.92137
296.50781
296.51664
706.77187
1042.5508
1348.1824
3379.971
3379.6774
1348.8278
1042.9109
706.80347
296.46906
296.45674
706.58941
1042.3051
1347.9281
3379.6586
3379.3814
1348.672
1042.7585
706.69134
296.43516
296.43929
706.52374
1042.2162
1347.8303
3379.5404
3379.1307
1348.2257
1042.4675
706.52966
296.39716
296.43326
706.44623
1042.0279
1347.4887
3378.698
3378.2636
1347.8506
1042.2342
706.41459
296.3769
296.41896
706.34506
1041.8084
1347.1364
3378.086
3378.0651
1347.9572
1042.3165
706.48681
296.41281
296.44027
706.36625
1041.8175
1347.1681
3378.6515
3379.4029
1348.3119
1042.5778
706.68292
296.49473
296.60428
706.81196
1042.455
1348.0341
3381.2741
3383.9341
1349.8389
1043.6874
707.43791
296.76155
297.03956
708.07896
1044.3461
1350.6525
3388.6531
3395.6763
1354.292
1046.9242
709.59044
297.48796
298.16586
711.43782
1049.4039
1357.5515
3406.5974
3421.4075
1364.5445
1054.5972
714.74072
299.23649
300.76161
719.05927
1060.6668
1372.375
3441.6689
3467.6793
1385.1178
1070.5529
725.7215
302.97165
305.98331
734.44885
1082.726
1400.3221
3500.5606
3539.8755
1422.3762
1100.5235
746.90886
310.23111
315.54434
762.19319
1121.0393
1446.4669
3586.6763
3639.8662
1481.4417
1150.2328
783.4105
323.63405
334.99138
810.75676
1188.3822
1524.6257
3698.526
3758.4979
1590.8535
1247.3669
855.73716
352.70423
372.1706
906.74283
1309.3606
1648.9977
3822.912
3804.1007
1916.5638
1519.0054
1049.1854
418.9034
392.64997
962.28881
1394.2515
1762.8945
3774.1955
3707.3468
1662.7377
1299.963
887.37669
360.01291
357.7783
881.94623
1294.8672
1663.6847
3646.2813
3586.5454
1604.1167
1243.5153
843.07648
342.45276
333.00456
821.8756
1212.3565
1565.8316
3532.6956
3484.9757
1542.7096
1194.2164
809.73442
329.2106
325.76108
798.30198
1177.5968
1521.896
3444.7664
3411.2856
1503.3016
1162.8759
787.98251
322.41938
319.62188
779.84766
1151.3624
1489.0617
3384.7179
3363.9373
1479.0604
1143.6132
774.45439
317.7635
316.38908
770.50764
1137.84
1471.7067
3349.0518
3338.441
1467.288
1134.6044
768.28875
315.63127
315.07199
766.66284
1132.1587
1464.1204
3331.6905
3327.1265
1462.6505
1131.1935
765.98559
314.83867
314.62864
765.38457
1130.2537
1461.4718
3324.7314
3323.1137
1461.4074
1130.3384
765.40997
314.63116
314.51373
765.0696
1129.7777
1460.756
3322.487
3321.9109
1461.0051
1130.0389
765.18969
314.54404
314.45219
764.92971
1129.6121
1460.5639
3321.817
3321.3305
1460.7205
1129.7877
764.98836
314.46148
314.39827
764.8298
1129.5308
1460.5251
3321.6211
3321.6399
1460.9199
1129.8992
765.02487
314.45495
314.42738
764.96735
1129.7882
1460.9119
3322.3207
3322.5933
1461.4372
1130.2779
765.25796
314.52032
314.51803
765.2595
1130.2274
1461.4646
3323.2232
3323.4025
1462.0082
1130.7605
765.59473
314.63073
314.64599
765.63875
1130.7569
1462.069
3323.9879
3324.0549
1462.7713
1131.4278
766.0733
314.7936
314.79263
766.05414
1131.3105
1462.6624
3324.6447
3324.8509
1463.3742
1131.935
766.43165
314.91587
314.87438
766.30372
1131.6845
1463.1485
3325.7346
3326.1361
1463.7698
1132.2251
766.61714
314.97391
315.00752
766.72797
1132.3438
1464.027
3327.6822
3329.962
1465.5459
1133.6144
767.54071
315.27387
315.71421
768.83807
1135.3916
1467.7421
3335.1464
3351.8301
1478.1024
1143.9337
774.68309
317.67936
316.1423
770.16738
1137.4605
1470.5408
3340.5943
3334.1652
1467.7457
1135.2005
768.53008
315.58614
315.25222
767.48042
1133.5001
1465.5952
3331.1155
3329.2441
1465.2533
1133.277
767.25408
315.17009
314.98433
766.65986
1132.2612
1463.9851
3327.9387
3326.9859
1463.9507
1132.2593
766.57302
314.94655
314.79695
766.08406
1131.403
1462.9139
3326.1571
3325.841
1463.3578
1131.744
766.21173
314.82652
314.71018
765.83117
1131.0606
1462.544
3325.7813
3325.4621
1462.9662
1131.3852
765.9461
314.73494
314.60449
765.51856
1130.6326
1462.0816
3325.4227
3325.212
1462.52
1130.9931
765.67096
314.64686
314.56411
765.38318
1130.4474
1461.8995
3325.3192
3325.5649
1462.5774
1131.0303
765.70127
314.66595
314.62649
765.53225
1130.6281
1462.0768
3325.4195
3325.452
1462.5877
1131.1115
765.80631
314.72049
314.67175
765.60963
1130.6774
1462.0639
3325.4676
3325.7418
1462.4061
1130.968
765.72886
314.70708
314.63866
765.49299
1130.5187
1461.9718
3326.4166
3328.1529
1462.8502
1131.1505
765.8192
314.74239
314.85658
766.1205
1131.5104
1463.5213
3331.3824
3337.0896
1466.3434
1133.6342
767.4615
315.30706
315.90698
769.18404
1136.0655
1469.6775
3345.7656
3358.5959
1476.2628
1141.2021
772.62719
317.08892
318.648
777.11252
1147.6115
1484.5486
3376.1733
3399.5591
1497.2579
1157.8113
784.1734
321.10742
324.16794
793.05937
1170.2476
1512.6521
3428.4431
3462.9937
1533.6897
1187.4926
805.30361
328.2936
332.27026
818.19065
1205.8343
1556.3906
3503.1422
3548.5291
1578.6152
1223.7723
830.40442
335.81821
342.55639
846.43602
1248.0663
1609.4872
3597.8869
3652.6101
1654.7147
1289.0444
877.15313
356.6842
374.80771
923.38129
1346.2021
1716.4366
3705.4698
3761.6267
1740.9654
1376.2664
949.38209
384.72391
4394.3567
4776.6948
4562.7481
3809.7333
1633.5257
1294.5898
895.43052
368.49258
381.90592
939.83637
1372.3279
1750.7212
3699.8123
455.92281
1140.6064
1645.6971
2069.6571
3628.5129
3522.9705
2074.3253
1644.6605
1134.6229
447.83363
442.48444
1123.6917
1632.1152
2060.9758
3520.3761
3714.4474
1946.7514
1528.2259
1045.6305
412.34146
4162.6768
4281.242
4717.7508
4580.2535
2005.8994
1920.9004
2587.4008
2005.6792
3037.9496
2992.2315
2685.2593
2704.089
315.52519
764.97455
1126.4208
1450.9747
3314.7589
3303.4031
1444.2842
1120.024
759.97531
313.72275
312.80039
757.19299
1115.9133
1439.4237
3297.1721
3294.3384
1438.6457
1115.2437
756.60653
312.58176
312.44138
756.07378
1114.2102
1437.2042
3292.5241
3291.4859
1437.5586
1114.4841
756.1445
312.44293
312.35274
755.78118
1113.7287
1436.5138
3290.8918
3290.5993
1436.9523
1114.0142
755.83088
312.34014
312.22798
755.42142
1113.2347
1435.948
3290.0211
3289.4968
1436.2227
1113.3824
755.37821
312.18686
312.09419
755.00465
1112.6249
1435.2029
3288.8574
3288.2536
1435.5546
1112.8618
755.03741
312.08077
312.01062
754.7268
1112.1848
1434.6214
3287.8454
3287.6191
1435.2848
1112.6515
754.90788
312.04789
312.00269
754.66606
1112.0653
1434.4586
3287.6545
3287.9586
1435.5102
1112.8412
755.05822
312.11166
312.10919
754.94602
1112.4549
1434.9355
3288.6684
3289.0268
1435.8061
1113.1124
755.27365
312.20017
312.20316
755.17224
1112.7365
1435.2698
3289.7682
3291.0408
1436.5206
1113.6211
755.62516
312.3304
312.40495
755.7369
1113.5811
1436.4821
3293.3612
3297.4342
1438.9239
1115.3709
756.80146
312.74218
313.09112
757.75647
1116.604
1440.6125
3303.4704
3312.6028
1445.492
1120.1643
759.97469
313.80732
314.65406
762.39641
1123.604
1450.1104
3325.6585
3342.7641
1458.921
1130.3427
766.84611
316.15883
318.03336
772.24536
1138.0073
1468.7726
3365.107
3392.6573
1483.6189
1149.8121
780.39172
320.77599
323.89154
789.88813
1163.1353
1500.2673
3424.6428
3460.8699
1520.16
1179.0866
800.86527
327.20488
330.56316
811.3286
1194.28
1539.1286
3500.2243
3543.8985
1575.7443
1224.9181
832.79724
340.25345
356.70301
874.96447
1279.8485
1637.9288
3592.6168
3643.63
1657.0239
1297.9347
887.73209
360.8654
379.81339
932.79363
1362.8993
1739.68
3694.9
1712.5953
1360.8325
944.94099
386.8347
378.04588
928.3409
1336.9581
1683.101
3862.9045
3798.374
1864.1752
1463.6397
1002.6137
398.37373
423.66367
1070.2546
1556.3762
1977.4793
3722.4715
3762.6368
1762.5454
1385.9046
953.28955
386.55802
384.073
945.53291
1380.1062
1758.3213
3718.9549
3663.3955
1672.7563
1312.2444
898.42421
364.4724
359.43651
882.70447
1290.1047
1649.2779
3605.6222
3548.7554
1581.639
1230.4776
837.12808
341.80506
331.30457
813.34768
1196.5076
1540.9872
3498.1653
3453.7985
1519.5623
1179.4246
801.59814
327.54551
324.01638
789.94156
1162.5433
1498.4416
3415.1507
3382.4737
1481.2982
1148.8581
780.20314
320.82367
318.20052
772.45471
1137.7118
1467.3015
3356.2798
3335.2894
1458.2025
1130.6728
767.50772
316.48325
315.2063
763.73004
1124.9546
1450.6884
3320.5295
3309.5647
1446.9211
1122.1937
761.7749
314.51846
314.00651
760.19427
1119.6525
1443.451
3303.0739
3298.4332
1442.415
1118.9434
759.61182
313.7812
313.56673
758.92269
1117.7583
1440.8251
3296.0833
3294.3086
1440.7265
1117.677
758.73252
313.46839
313.36024
758.38421
1117.0484
1439.9664
3293.8377
3293.5746
1440.76
1117.6583
758.66402
313.41771
313.39458
758.53723
1117.3005
1440.2749
3293.958
3293.9483
1441.1682
1118.0002
758.89088
313.48252
313.46328
758.76326
1117.6302
1440.6598
3294.3568
3294.3936
1441.7306
1118.4646
759.20749
313.58214
313.55507
759.04842
1118.0376
1441.1352
3294.9356
3294.5313
1441.4946
1118.2686
759.06751
313.53111
313.39408
758.61742
1117.4889
1440.5818
3294.2052
3293.9039
1440.853
1117.6068
758.53756
313.32972
313.19964
758.1098
1116.8514
1439.9513
3293.7244
3293.5307
1440.4721
1117.2437
758.25171
313.21631
313.14383
757.97161
1116.6662
1439.7291
3293.4087
3292.855
1440.0486
1116.9169
758.02927
313.13777
313.07807
757.79779
1116.4324
1439.4548
3292.818
3292.873
1440.0273
1116.875
757.98126
313.11291
313.11714
757.94134
1116.6735
1439.7931
3293.5474
3295.1538
1441.2125
1117.7568
758.5435
313.28721
313.50035
759.11392
1118.4351
1442.0525
3298.1449
3303.6127
1445.5776
1121.3872
761.08666
314.15815
3334.6732
1468.5663
1136.2955
769.44753
315.91746
314.74239
765.94948
1131.1889
1462.5302
3326.2543
3321.199
1461.0327
1130.0683
765.11192
314.45212
314.09536
763.96594
1128.1934
1458.6639
3318.584
3317.1352
1458.9578
1128.4522
764.03639
314.10057
313.86031
763.24829
1127.1292
1457.3296
3316.2885
3315.6785
1458.1281
1127.8083
763.61386
313.9661
313.78615
763.00752
1126.745
1456.8061
3315.3328
3314.8274
1457.6188
1127.4161
763.35296
313.87993
313.64134
762.57914
1126.1332
1456.0836
3314.3467
3314.0098
1456.9424
1126.7903
762.88787
313.71785
313.4786
762.11236
1125.5174
1455.4471
3313.6625
3313.7647
1456.5819
1126.4255
762.61248
313.62621
313.45517
762.02954
1125.4085
1455.3511
3313.8669
3313.912
1456.3847
1126.2899
762.54405
313.61746
313.51906
762.1716
1125.5674
1455.498
3314.1264
3314.325
1456.7258
1126.5998
762.789
313.71657
313.62515
762.43216
1125.8964
1455.866
3314.9547
3315.6566
1457.2542
1127.034
763.11886
313.84752
313.82658
762.97028
1126.6424
1456.8281
3317.3328
3319.9319
1459.1014
1128.433
764.09114
314.19611
314.39427
764.59095
1129.0073
1459.9653
3324.4847
3331.1759
1464.2087
1132.3103
766.73626
315.11125
315.75698
768.56433
1134.8464
1467.636
3341.0008
3354.807
1475.4931
1140.959
772.62514
317.12932
318.56572
776.74771
1146.8467
1483.1906
3373.1911
3396.6458
1496.2454
1157.2322
783.86497
321.01959
323.81358
792.02116
1168.6606
1510.5255
3425.4235
3459.1162
1531.1264
1185.3801
803.73943
327.69096
330.92995
814.50711
1200.8026
1550.3162
3497.3672
3539.4228
1572.8703
1219.1511
826.98964
334.96138
343.65523
846.07794
1246.8957
1606.5905
3584.7292
3632.4669
1661.3614
1294.4062
882.12447
357.97108
357.65714
880.89262
1290.243
1649.7704
3681.9838
3739.6509
1740.8543
1375.4772
948.46998
387.52749
412.3396
1030.1255
1492.8834
1886.8902
3765.2276
3786.8416
1624.1263
1287.5446
890.61748
366.45686
375.75759
925.90353
1352.6542
1727.8214
3679.4379
3677.1443
1693.9607
1323.3598
903.96507
366.44047
361.60092
881.8739
1274.6635
1608.0831
3799.308
3757.4461
1736.3793
1371.789
946.13548
383.86544
385.41882
945.79963
1371.0319
1735.3203
3761.4809
3818.6828
1639.5591
1300.8947
900.41224
370.13929
382.36337
943.82289
1377.9956
1755.7553
3717.5357
3663.7559
1671.6487
1312.5268
898.69907
364.27295
361.19361
888.07533
1296.9983
1655.9879
3607.8
3551.9595
1587.4535
1236.6872
842.15289
343.53656
332.6769
817.21669
1201.3874
1545.7399
3501.9457
3457.7619
1523.3712
1183.226
804.57477
328.62501
324.80898
792.07882
1165.358
1501.4802
3418.8313
3385.1449
1483.2017
1150.5549
781.47907
321.30153
318.34836
772.84204
1138.2727
1468.0564
3357.9903
3335.6328
1457.7732
1130.2046
767.15029
316.36428
314.82913
762.66882
1123.5661
1449.2763
3319.5282
3307.3633
1444.6378
1120.1172
760.24708
313.97876
313.32541
758.27752
1117.069
1440.6225
3299.8977
3294.6334
1439.3732
1116.2466
757.64234
313.08265
312.84345
756.88156
1114.969
1437.6742
3292.0731
3290.4465
1438.0056
1115.3095
757.01518
312.8573
312.78056
756.74106
1114.7748
1437.3389
3290.3741
3290.2941
1438.3087
1115.574
757.17656
312.89516
312.87042
757.05178
1115.2572
1437.9354
3290.9795
3290.8663
1438.4467
1115.6693
757.22307
312.90026
312.80282
756.9046
1115.1188
1437.8707
3290.8726
3290.7337
1438.1831
1115.3637
756.95871
312.79145
312.66828
756.56427
1114.6997
1437.4607
3290.3402
3289.7845
1437.6158
1114.8227
756.54012
312.63229
312.4648
756.01142
1113.9605
1436.6478
3289.2086
3288.3123
1437.0386
1114.2841
756.12859
312.4754
312.35709
755.72215
1113.5525
1436.1476
3288.4635
3287.7694
1436.3253
1113.7357
755.7575
312.34599
312.25497
755.4393
1113.1505
1435.6408
3287.4035
3287.4113
1436.1879
1113.6252
755.67
312.30818
312.25551
755.4613
1113.1996
1435.7116
3287.4341
3288.412
1436.7327
1114.0496
755.94581
312.39309
312.40438
755.92154
1113.8897
1436.5885
3289.1205
3290.6393
1437.7448
1114.8208
756.45289
312.55769
312.72979
756.93385
1115.4416
1438.6304
3293.4509
3299.0318
1441.8447
1118.1589
758.75812
313.33334
3317.8541
1453.974
1128.7058
766.3574
315.95835
314.05152
760.81448
1120.9495
1445.2158
3305.4417
3298.8645
1441.9099
1117.9398
758.4906
313.22255
312.8961
757.39423
1116.0857
1439.4611
3295.6352
3293.8451
1439.4989
1116.1103
757.30097
312.8457
312.7952
757.02405
1115.4213
1438.4358
3292.9708
3292.5469
1439.026
1115.8431
757.17323
312.81776
312.75483
756.87342
1115.1504
1438.0144
3291.792
3291.5847
1438.5838
1115.5194
756.97071
312.75672
312.68464
756.64229
1114.7819
1437.5146
3290.8816
3290.2853
1438.0064
1115.0677
756.67356
312.66163
312.55561
756.25813
1114.23
1436.857
3289.951
3289.5426
1437.3891
1114.5057
756.26178
312.51968
312.40085
755.8151
1113.6514
1436.2732
3289.4845
3289.2858
1436.9384
1114.0198
755.8779
312.3849
312.29056
755.50501
1113.2735
1435.9472
3289.5882
3289.5353
1436.4828
1113.6086
755.58468
312.2932
312.27196
755.41904
1113.1437
1435.816
3289.8203
3290.2668
1436.414
1113.552
755.56846
312.30455
312.36505
755.64516
1113.4357
1436.2072
3291.2792
3293.3687
1437.6084
1114.4193
756.1646
312.51888
312.73277
756.69023
1114.9822
1438.3486
3297.0165
3303.0594
1441.5861
1117.2753
758.04987
313.15783
313.71593
759.63264
1119.4572
1444.5415
3312.1959
3324.8244
1450.9097
1124.1943
762.67099
314.72619
316.10011
766.59154
1129.7546
1458.1254
3342.1031
3364.2864
1469.6371
1138.7048
772.63054
318.15367
320.69773
780.098
1149.1576
1482.72
3391.6153
3423.9688
1500.9593
1163.7107
790.21185
323.97374
326.95674
800.33779
1178.2006
1519.0931
3460.0136
3500.1836
1539.4441
1194.3697
811.24571
330.46028
340.47736
833.51162
1225.7895
1576.7977
3545.1556
3595.9631
1643.1532
1283.9277
877.62681
357.64758
361.46465
889.22563
1299.7665
1658.7931
3648.9674
3749.2997
1558.458
1219.8931
835.6812
344.29964
336.27001
815.28724
1194.6029
1533.1878
3693.9886
3641.5325
1483.4254
1151.9231
784.24606
324.32899
315.50599
763.0876
1122.7358
1448.9001
3594.1734
3551.248
1428.8947
1105.9199
750.72322
311.31492
307.43087
738.82734
1088.9369
1407.8992
3513.2571
3480.0807
1391.2764
1075.5802
729.27771
304.18951
301.64654
721.72458
1064.6347
1377.544
3452.0873
3429.2678
1368.0204
1057.2753
716.56535
299.85536
298.52782
712.5585
1051.1518
1359.977
3411.8533
3398.9884
1355.2756
1047.6529
710.08249
297.65394
297.05069
708.17917
1044.5999
1351.1626
3389.9366
3384.1399
1349.489
1043.4146
707.25536
296.69952
296.47206
706.46996
1042.0295
1347.606
3380.2344
3378.1513
1347.3683
1041.8669
706.20567
296.33317
296.2657
705.91441
1041.2482
1346.5575
3376.9737
3376.4213
1347.0649
1041.6469
706.03015
296.25579
296.27064
705.97072
1041.3496
1346.6551
3376.5626
3376.7589
1347.4871
1041.9965
706.25754
296.31935
296.37809
706.30856
1041.8336
1347.2133
3377.2007
3377.7829
1348.171
1042.6247
706.71576
296.47348
296.56628
706.84528
1042.5398
1347.9368
3377.8915
3378.5685
1349.0029
1043.4061
707.29782
296.67562
296.75334
707.38847
1043.2847
1348.762
3378.9252
3379.4265
1349.5576
1043.9076
707.66395
296.80301
296.84243
707.65865
1043.6839
1349.2541
3379.5948
3379.8848
1350.1975
1044.4064
707.99415
296.90823
296.96334
708.02794
1044.2214
1349.9096
3380.7471
3380.9403
1350.3918
1044.5545
708.09172
296.93978
296.94697
708.02485
1044.3064
1350.1669
3381.7819
3383.1516
1351.052
1044.9156
708.25227
296.96938
297.23814
708.9749
1045.8114
1352.2071
3386.696
3393.8362
1356.8769
1049.7448
711.59696
298.08481
300.06691
717.13941
1056.9702
1364.6595
3406.9434
3400.1369
1360.0565
1052.7064
713.84773
298.88404
297.61999
710.03263
1047.1638
1353.5613
3389.2362
3383.1898
1351.2217
1045.0319
708.3254
296.9844
296.76219
707.46017
1043.4328
1349.0094
3380.2462
3378.4662
1348.9067
1043.2896
707.19803
296.62745
296.61183
706.95674
1042.5999
1347.8232
3377.3408
3376.6181
1348.303
1042.845
706.91537
296.53771
296.46733
706.53084
1041.9897
1347.0859
3376.0001
3375.4764
1347.5889
1042.1964
706.43705
296.37128
296.3035
706.06379
1041.3778
1346.4435
3375.2489
3374.6083
1346.7569
1041.5167
705.97019
296.22073
296.23302
705.81839
1040.981
1345.9016
3374.0988
3373.6123
1346.349
1041.2374
705.81208
296.18167
296.21686
705.71671
1040.7742
1345.5803
3373.5148
3373.4749
1346.345
1041.2714
705.86756
296.21677
296.29501
705.89242
1040.9701
1345.7628
3373.868
3374.6267
1346.8207
1041.7255
706.22957
296.35994
296.48584
706.40098
1041.6413
1346.5158
3375.3117
3376.3656
1347.7081
1042.4205
706.71989
296.53668
296.63317
706.81587
1042.2678
1347.4142
3378.2109
3380.8545
1349.2107
1043.4531
707.38702
296.76598
297.01982
707.96585
1044.0472
1349.9639
3385.5061
3392.1145
1353.3393
1046.4215
709.33459
297.41873
298.05161
711.05938
1048.7366
1356.3774
3401.9127
3414.999
1362.5634
1053.3165
713.94698
298.97808
300.32121
717.73454
1058.6432
1369.4422
3432.7918
3455.5205
1380.3435
1066.9986
723.2547
302.15848
304.56768
730.21614
1076.7607
1392.6156
3483.6358
3516.4829
1410.1871
1090.8339
739.98249
307.86157
311.94861
751.87774
1107.3496
1430.3675
3553.995
3595.6001
1452.4199
1126.1175
765.54209
316.61743
323.59943
783.05274
1149.9667
1480.8152
3640.688
3689.3253
1518.2855
1183.0894
806.61532
333.3886
351.24114
851.73317
1241.4509
1584.0781
3740.5224
3798.1155
1626.3341
1289.0293
891.67353
366.85497
410.73007
1027.1686