/*--------------------------------*- C++ -*----------------------------------*\
  =========                 |
  \\      /  F ield         | OpenFOAM: The Open Source CFD Toolbox
   \\    /   O peration     | Website:  https://openfoam.org
    \\  /    A nd           | Version:  7
     \\/     M anipulation  |
\*---------------------------------------------------------------------------*/
FoamFile
{
    version     2.0;
    format      ascii;
    class       volScalarField;
    location    "10";
    object      omega;
}
// * * * * * * * * * * * * * * * * * * * * * * * * * * * * * * * * * * * * * //

dimensions      [0 0 -1 0 0 0 0];

internalField   nonuniform List<scalar> 
24789
(
158723.28
50891.73
31027.625
23650.249
4400.5046
4386.7776
23632.703
30994.713
50823.772
158502
158434.43
50804.818
30974.124
23607.806
4384.6349
4386.1173
23618.665
30974.806
50786.494
158367.48
158379.75
50790.976
30967.342
23603.473
4385.6957
4386.5517
23617.655
30973.093
50783.17
158354.13
158371.97
50788.492
30965.524
23601.932
4385.5887
4386.0031
23614.919
30969.914
50779.056
158343.38
158349.24
50780.701
30960.156
23597.62
4384.9737
4386.002
23609.92
30963.46
50768.92
158310.34
158320.72
50772.028
30954.927
23593.735
4385.111
4386.2522
23605.851
30957.972
50759.352
158276.32
158289.97
50763.622
30950.256
23590.477
4385.6981
4387.0022
23602.927
30953.649
50751.329
158245.21
158257.72
50756.146
30946.698
23588.257
4386.5916
4388.1006
23602.573
30952.476
50747.416
158221.74
158247.62
50757.688
30949.123
23590.574
4388.02
4390.0332
23607.915
30958.94
50755.594
158234.42
158275.37
50770.334
30957.118
23596.805
4390.2329
4392.2808
23614.083
30966.826
50768.906
158263.98
158293.47
50780.221
30963.2
23601.485
4392.3938
4394.5198
23618.761
30973.146
50779.662
158280.35
158323.23
50797.588
30973.858
23609.573
4394.9201
4397.5746
23632.532
30991.482
50809.978
158339.85
158447.87
50853.008
31007.159
23634.593
4398.8557
4402.5632
23675.147
31048.72
50907.185
158577.15
158855.17
51011.832
31100.868
23704.223
4405.3187
4410.8697
23780.933
31191.871
51152.851
159245.42
159854.31
51368.036
31306.753
23855.658
4416.2416
4427.2616
23981.999
31474.174
51648.926
160667.27
161526.48
52012.29
31699.842
24145.898
4440.9088
4461.8257
24452.832
32087.907
52587.289
162508.6
164643.58
53468.39
32546.851
24739.374
4464.9287
4416.3394
24833.512
32730.528
53860.439
167627.05
169971.23
54851.43
33398.301
25366.706
4393.7553
4408.3539
25934.545
34377.771
56946.75
178396.79
188519.47
59315.122
35231.152
26156.317
4567.672
4164.9914
26455.788
34526.392
56559.641
175573.32
171430.93
55006.259
33650.459
25771.791
4094.4571
4078.5533
25658.016
33310.635
54221.369
166969.17
164016.12
53150.995
32750.739
25274.206
4077.169
4070.4603
24989.913
32335.664
52403.982
161970.82
160669.89
51885.936
31988.074
24706.769
4058.6674
4049.2832
24569.792
31782.212
51516.497
159619.34
158915.23
51258.15
31612.521
24431.323
4041.0221
4037.4312
24375.106
31521.239
51077.626
158430.07
158143.91
50965.191
31435.029
24295.622
4033.0377
4031.5584
24286.153
31404.825
50884.26
157926.93
157840.26
50843.495
31361.603
24239.327
4028.5553
4028.0624
24252.961
31361.351
50811.565
157756.03
157748.1
50801.074
31335.754
24219.458
4025.5903
4025.2983
24239.374
31343.707
50782.793
157694.07
157701.89
50778.877
31321.572
24208.471
4022.829
4021.9905
24228.139
31329.538
50761.096
157644.54
157660
50759.524
31308.538
24198.017
4019.5199
4019.1042
24219.506
31318.813
50745.237
157612.92
157631.57
50746.001
31299.816
24191.052
4017.1187
4018.0109
24218.202
31317.324
50743.863
157625.43
157676.96
50756.277
31305.547
24195.189
4016.9498
4017.8472
24224.422
31325.773
50757.873
157673.99
157714.18
50767.807
31312.615
24200.495
4016.5722
4017.1856
24226.836
31328.97
50762.786
157688.62
157712.71
50767.182
31312.303
24200.237
4015.7995
4016.4848
24225.278
31326.867
50759.495
157681.12
157702.69
50762.663
31309.217
24197.835
4015.1015
4015.5442
24223.361
31324.455
50755.924
157674.44
157706.19
50762.391
31308.985
24197.565
4014.8242
4015.3106
24221.837
31322.712
50753.107
157666.5
157690.08
50756.671
31305.285
24194.673
4013.9995
4014.2458
24218.979
31319.305
50748.592
157657.61
157708.83
50759.684
31305.998
24194.649
4012.6864
4014.1817
24228.1
31332.259
50773.106
157751.67
157946.73
50827.511
31345.798
24224.791
4020.0708
4032.2002
24300.014
31421.568
50923.345
158237.1
157958.22
50834.969
31352.073
24235.174
4019.2081
4018.4852
24232.808
31333.568
50779.225
157760.19
157749.81
50773.998
31317.319
24209.768
4018.1514
4019.3043
24220.263
31316.09
50748.527
157660.03
157668.77
50748.302
31302.098
24198.622
4018.3475
4019.2105
24210.36
31302.742
50725.688
157584.54
157611.16
50731.875
31292.911
24191.971
4018.4839
4019.4548
24206.563
31297.406
50715.793
157547.18
157591.27
50726.741
31290.086
24189.892
4018.7997
4019.6882
24204.466
31294.558
50711.741
157533.55
157572.67
50721.89
31286.523
24187.159
4018.8813
4019.4295
24203.43
31293.703
50711.697
157527.39
157586.3
50728.163
31290.082
24189.743
4018.9557
4020.2928
24207.538
31298.909
50719.735
157543.53
157602.69
50737.581
31297.029
24195.3
4020.3088
4022.0477
24214.505
31307.765
50731.705
157568.23
157633.66
50750.31
31305.481
24201.835
4022.2672
4024.0576
24218.922
31313.084
50739.367
157584.45
157628.99
50752.939
31307.537
24203.6
4024.1705
4025.6012
24220.615
31315.264
50743.731
157581.32
157644.49
50765.627
31314.504
24208.808
4025.2492
4027.045
24235.12
31334.726
50777.57
157651.08
157802.32
50832.289
31354.159
24238.891
4027.8002
4030.8891
24285.985
31401.82
50890.564
157937.94
158254.54
51005.391
31458.23
24318.155
4033.3225
4038.4668
24402.131
31554.305
51143.943
158616.76
159220.5
51363.272
31675.431
24484.053
4043.9363
4053.5463
24629.601
31856.754
51648.076
160011.14
161178.63
52054.449
32089.306
24787.61
4066.0385
4082.7721
25073.231
32444.651
52586.301
162486.34
164433.84
53384.09
32909.748
25400.911
4097.5442
4096.6139
25747.018
33452.208
54481.934
167752.31
173119.3
55290.334
33695.037
25683.117
4100.0394
4156.5126
26640.96
34662.41
56633.997
174532.1
187938.13
59181.74
35174.867
26189.324
4564.3979
4365.583
25280.849
33489.698
55291.568
172957.97
173661.2
54908.815
33067.562
24865.869
4398.7869
4435.1154
25091.105
33028.419
54360.245
168640.62
164975.91
53649.145
32744.818
24941.686
4471.8448
4460.2112
24656.24
32288.694
52787.771
163210.29
162443.47
52306.037
31945.45
24376.516
4438.624
4425.3662
24248.469
31757.46
51981.193
161630.48
160881.25
51719.847
31592.969
24118.294
4413.958
4409.4115
24059.04
31496.241
51526.001
160326.11
159932.04
51385.275
31398.571
23974.101
4403.1052
4401.375
23955.021
31355.534
51283.575
159655.69
159479.19
51215.888
31299.902
23901.007
4396.9127
4397.6258
23908.994
31292.862
51175.025
159377.74
159323.68
51151.456
31262.461
23873.454
4394.3929
4395.0449
23891.521
31269.253
51134.325
159281.46
159273.69
51127.181
31247.718
23862.375
4392.0563
4392.7047
23883.314
31258.656
51117.964
159250.38
159256.74
51115.516
31239.662
23855.996
4389.8141
4390.8927
23880.187
31254.877
51112.867
159252.51
159269.09
51115.617
31239.251
23855.329
4388.3213
4389.4813
23881.052
31256.512
51116.36
159271.62
159292.97
51120.825
31241.913
23857.023
4387.205
4388.6469
23882.284
31258.409
51119.887
159287.34
159295.48
51120.656
31241.78
23856.925
4386.6321
4388.3736
23880.763
31256.261
51116.361
159279.27
159281.69
51115.015
31238.377
23854.517
4386.3514
4388.0756
23878.303
31252.807
51110.64
159265.98
159275.99
51111.549
31236.227
23852.926
4386.0431
4388.4624
23881.339
31256.915
51118.234
159299.43
159331.44
51127.005
31244.766
23859.069
4386.3128
4387.6676
23886.098
31264
51131.441
159342.38
159375.29
51139.526
31250.971
23863.071
4385.098
4386.3839
23893.31
31274.93
51153.139
159422.17
159593.2
51200.97
31285.174
23887.399
4386.6081
4402.8105
23969.734
31376.034
51318.213
159971.77
159151.61
51010.834
31090.552
23691.316
4394.248
4385.77
23644.072
31012.06
50857.995
158629.32
158463.85
50812.403
30977.275
23609.452
4384.0046
4385.3417
23618.71
30975.653
50789.754
158379.34
158395.03
50795.034
30969.133
23604.373
4385.1492
4386.7147
23617.83
30973.57
50783.438
158351.65
158374.8
50789.906
30967.327
23603.518
4386.2126
4387.4293
23615.566
30969.684
50775.353
158324.93
158330.11
50777.133
30960.174
23598.396
4386.4187
4387.1061
23610.911
30963.785
50765.383
158289.24
158306.32
50770.348
30956.353
23595.47
4386.1106
4386.9546
23607.355
30958.769
50756.417
158259.05
158262.87
50757.759
30948.934
23589.818
4385.6124
4386.3811
23602.076
30951.849
50745.232
158218.71
158236.04
50751.208
30944.511
23586.255
4384.996
4386.5761
23601.549
30951.361
50744.545
158207.31
158240.57
50756.16
30947.959
23589.032
4386.3948
4388.4207
23604.475
30955.041
50749.538
158210.42
158241.23
50760.493
30951.573
23592.16
4388.5426
4390.7291
23607.409
30958.292
50753.256
158206.34
158240.51
50767.315
30956.561
23596.226
4390.8301
4393.0889
23616.15
30969.857
50771.7
158232.97
158329.18
50809.208
30981.831
23615.129
4393.7033
4396.9116
23650.457
31015.944
50850.342
158426.27
158660.02
50938.322
31057.484
23671.07
4398.8406
4403.7642
23737.783
31134.488
51054.991
158977.24
159482.93
51234.845
31229.607
23797.811
4407.7874
4416.0188
23911.423
31372.203
51469.355
160162.01
161075.46
51783.883
31542.871
24022.241
4426.3127
4443.3397
24207.451
31779.238
52148.749
162004.77
162809.91
52676.439
32135.117
24479.981
4464.0005
4473.0459
24795.745
32601.546
53507.765
164552.89
167595.59
53852.635
32746.561
24868.466
4414.9911
4395.4066
25212.224
33258.06
54735.347
170267
176362.17
56490.936
34190.053
25854.064
4403.6016
4556.3926
25948.066
34934.589
58893.674
187302.06
5656.553
24489.543
34009.737
58680.646
189682.39
182490.39
58566.797
35076.5
26071.265
4704.2618
4189.3972
27620.925
36272.732
59496.966
183107.12
178684.8
57241.221
34707.306
26183.85
4395.155
4379.9803
25416.02
33828.819
56060.423
176135.45
173262.36
55197.11
33349.194
25151.336
4398.8427
4428.2897
25148.6
33089.984
54412.659
168811.51
165253.83
53652.318
32736.377
24935.139
4461.9893
4454.9118
24644.048
32274.6
52774.897
163238.96
162282.29
52264.191
31923.551
24363.469
4437.0096
4425.1933
24228.481
31728.372
51928.296
161448.75
160711.01
51666.879
31563.272
24097.618
4415.0234
4411.0915
24040.116
31468.917
51476.947
160176.91
159798.31
51341.736
31374.906
23958.164
4405.5638
4403.6393
23940.406
31334.072
51244.359
159533.66
159370.09
51180.851
31280.948
23888.568
4399.827
4399.2796
23893.755
31270.906
51135.984
159252.96
159194.95
51110.406
31239.314
23857.664
4396.3452
4396.3495
23873.322
31243.448
51090.041
159143.86
159130.33
51080.439
31220.753
23843.644
4393.6659
4394.1152
23864.811
31232.299
51072.555
159113.22
159122.85
51071.948
31214.975
23839.027
4391.9066
4392.5137
23862.844
31230.093
51069.851
159119.33
159139.43
51073.275
31215.191
23838.829
4390.3214
4391.0867
23866.694
31235.691
51080.122
159164.55
159199.53
51089.868
31224.834
23845.665
4389.6834
4390.7083
23872.128
31243.279
51092.768
159205.02
159210.92
51093.877
31227.34
23847.526
4388.909
4390.6368
23871.704
31242.368
51090.97
159200.16
159197.06
51088.82
31224.571
23845.824
4389.2378
4390.7047
23868.807
31238.246
51083.947
159181.41
159187.2
51083.716
31221.158
23843.285
4388.8962
4389.696
23866.346
31235.464
51080.713
159178.03
159196.38
51084.06
31220.158
23842.01
4387.5547
4388.144
23865.758
31235.568
51083.319
159193.73
159219.04
51088.788
31221.355
23842.125
4385.8494
4386.7469
23869.764
31242.366
51098.387
159254.42
159421.72
51144.817
31252.119
23863.854
4387.0866
4402.9193
23947.11
31345.152
51267.278
159822.61
157932.12
50820.245
31343.293
24229.44
4025.2094
4018.4547
24211.896
31305.926
50735.539
157636.58
157607.26
50724.836
31286.772
24186.681
4017.1245
4018.4893
24197.663
31286.048
50699.048
157503.55
157566.93
50715.432
31282.587
24184.197
4018.2877
4019.8137
24199.017
31287.113
50698.771
157496.8
157562.4
50715.323
31283.592
24185.311
4019.4415
4020.7595
24199.034
31286.708
50696.401
157484.73
157548.06
50712.147
31282.373
24184.625
4020.2586
4021.245
24197.792
31284.72
50693.026
157473.57
157524.1
50705.227
31277.728
24180.97
4019.8599
4020.8757
24195.35
31281.684
50688.87
157457.2
157516.35
50704.483
31277.161
24180.577
4020.1893
4021.8772
24196.795
31283.611
50690.922
157453.25
157529.47
50711.807
31282.956
24185.395
4022.0917
4024.1327
24201.569
31289.126
50697.375
157461.62
157535.76
50718.163
31288.242
24189.907
4024.4983
4026.4429
24206.287
31294.49
50704.739
157474.61
157536.57
50722.841
31291.593
24192.724
4026.161
4028.0585
24211.479
31301.149
50714.991
157489.66
157569.45
50739.746
31302.329
24200.932
4027.9806
4030.2634
24222.642
31315.769
50738.582
157539.26
157647.01
50774.529
31323.479
24217.054
4030.4609
4033.1561
24247.346
31348.201
50793.181
157669.64
157854.71
50859.539
31374.279
24255.734
4033.9874
4037.606
24308.176
31428.247
50927.196
158011.95
158388.99
51062.833
31497.366
24349.911
4039.8272
4045.6249
24448.53
31611.991
51230.785
158821.32
159581.84
51508.666
31767.362
24554.075
4051.8559
4063.1547
24739.154
32003.859
51875.702
160598.76
162074.14
52441.702
32349.346
24995.643
4073.7699
4082.1742
25306.253
32777.004
53182.33
164159.09
166951.69
54123.231
33255.9
25621.985
4080.0571
4103.6842
25866.965
33695.8
54953.266
170793.57
175647.85
56594.787
34556.03
26486.687
4174.2578
4587.544
26015.555
35106.15
59112.816
188355.05
178520.9
56880.238
34306.691
25859.112
4420.0203
4398.3197
25511.249
33488.726
54871.191
168967.67
168196
53895.97
32701.375
24752.503
4415.5546
4470.0658
24783.906
32610.202
53571.118
164782.09
162560.37
52659.203
32131.413
24473.025
4463.6923
4441.434
24191.098
31747.217
52056.975
161609.92
160821.88
51705.133
31503.132
23990.439
4423.4648
4414.1727
23899.832
31357.974
51427.984
160033
159464.94
51226.252
31228.263
23792.54
4405.8071
4402.7346
23752.457
31157.426
51078.684
159043.41
158804.23
50985.015
31087.189
23687.837
4397.1784
4396.1218
23683.051
31063.741
50918.449
158626.37
158562.31
50886.355
31028.759
23644.206
4392.0807
4392.1102
23656.964
31028.858
50859.554
158489.32
158491.06
50852.269
31008.083
23628.606
4388.9129
4389.8177
23649.668
31018.978
50843.221
158465.03
158480.36
50843.591
31003.011
23624.961
4387.6871
4388.619
23645.981
31013.944
50834.734
158450.34
158465.31
50834.62
30997.152
23620.393
4385.6494
4386.1321
23639.85
31006.33
50823.116
158425.52
158445.75
50824.254
30990.015
23614.573
4383.1514
4383.8815
23635.248
31000.97
50816.349
158417.27
158446.1
50820.749
30986.546
23611.386
4381.2349
4382.5455
23634.032
31000
50816.622
158428.84
158468.04
50824.991
30988.298
23612.329
4380.3791
4382.1021
23636.746
31003.976
50824.138
158458.7
158503.71
50834.892
30993.904
23616.39
4380.3314
4382.2292
23643.075
31012.263
50837.949
158505.74
158547.79
50849.018
31002.761
23623.21
4381.1151
4383.3962
23649.314
31019.982
50849.706
158540.43
158567.23
50856.008
31007.484
23627.08
4381.7443
4383.4402
23651.119
31022.382
50853.54
158552.29
158597.78
50863.915
31011.623
23629.9
4381.3905
4382.7403
23657.031
31031.623
50872.133
158622.66
158788.18
50917.451
31041.794
23652.198
4386.4916
4392.4147
23733.673
31135.425
51061.778
159277.49
158870.34
50940.55
31052.474
23662.208
4382.3293
4382.5071
23660.288
31034.917
50887.018
158675.77
158642.41
50876.213
31017.526
23637.662
4381.7102
4383.0528
23650.402
31020.62
50859.914
158579.33
158585.49
50860.274
31009.629
23632.462
4382.3974
4383.6626
23646.251
31014.28
50846.725
158531.58
158543.24
50848.856
31003.985
23628.723
4383.0441
4383.9843
23643.031
31009.458
50837.895
158499.98
158516.76
50840.933
30999.011
23624.875
4382.7323
4383.6956
23639.185
31004.566
50829.959
158472.86
158486.17
50832.55
30994.191
23621.281
4382.7499
4383.4791
23635.836
31000.264
50822.784
158444.82
158467.12
50828.702
30991.68
23619.254
4382.6532
4383.4014
23635.891
31000.836
50824.459
158442.03
158482.91
50836.723
30996.548
23622.799
4383.2474
4385.0108
23640.851
31007.262
50834.272
158462.61
158503.12
50845.571
31002.399
23627.404
4385.2216
4387.0715
23643.181
31009.97
50837.541
158463.11
158487.15
50845.085
31002.958
23628.198
4387.2218
4388.9402
23645.03
31011.993
50839.762
158448.81
158502.88
50859.942
31012.327
23635.35
4389.1697
4391.6812
23662.691
31035.6
50879.541
158532.66
158686.69
50936.685
31057.73
23669.141
4393.159
4397.1874
23720.071
31113.203
51012.624
158875.67
159242.26
51144.909
31179.455
23759.139
4400.5857
4406.6444
23851.087
31291.237
51319.561
159729.8
160456.71
51570.728
31426.173
23940.664
4413.4569
4425.8259
24085.12
31617.067
51888.455
161379.89
162404.74
52280.888
31852.333
24251.293
4441.8179
4464.9111
24558.694
32230.189
52815.483
163295.37
165008.4
53715.701
32736.106
24890.55
4479.5449
4430.7684
25066.989
32998.931
54248.343
168177.42
172368.38
55165.215
33390.302
25203.09
4400.5583
4403.3853
26003.768
34411.772
56867.643
177313.75
2289.7676
1440.2918
1888.7831
4160.8337
26334.142
34332.835
56210.053
174461.29
175440.14
55627.894
33475.884
25110.31
4367.6201
188841.31
58792.012
34158.356
24658.66
5656.7253
6218.8594
24716.507
34393.535
59268.666
190039.3
188928.62
59360.059
34519.888
24864.453
6227.3194
5016.4963
25358.541
34384.902
57795.301
181867.03
3147.797
2797.7036
1623.3851
1950.7794
223.82993
219.4536
277.16142
224.00689
332.77661
324.45202
288.78469
292.48489
159842.82
51263.765
31331.028
23930.048
4410.8473
4395.1633
23851.651
31213.416
51057.083
159166.42
158935.68
50991.062
31164.513
23806.924
4392.0998
4392.9192
23813.755
31160.103
50962.633
158830.29
158851.27
50969.746
31153.905
23800.01
4393.0124
4394.2386
23813.318
31158.59
50957.791
158808.44
158837.9
50965.681
31151.79
23798.521
4393.5807
4393.7012
23808.822
31153.046
50949.241
158782.98
158802.46
50954.503
31144.917
23793.335
4393.0833
4393.9737
23804.257
31146.51
50937.547
158741.18
158770.25
50946.305
31140.727
23790.591
4393.6884
4394.9281
23803.572
31144.981
50933.51
158720.04
158753.32
50944.148
31140.769
23791.106
4394.8539
4396.1858
23805.388
31146.752
50934.599
158715.13
158751.09
50946.827
31142.976
23792.992
4395.987
4397.4373
23809.045
31151.377
50942.032
158729.14
158776.49
50957.634
31149.189
23797.624
4397.1735
4399.1187
23814.458
31158.596
50953.871
158754.03
158801.47
50969.797
31157.441
23804.26
4399.6594
4401.4193
23821.12
31166.904
50966.909
158778.74
158829.97
50986.833
31168.265
23812.502
4401.4843
4402.7575
23834.984
31186.063
50998.947
158851.62
158957.6
51037.761
31197.721
23833.783
4403.0636
4405.019
23865.144
31227.344
51072.181
159040.95
159233.64
51145.015
31259.289
23878.705
4405.696
4409.417
23936.464
31324.964
51241.316
159497.26
159929.54
51393.057
31402.215
23983.912
4412.7535
4419.1928
24080.345
31520.643
51584.218
160480.37
161234.19
51852.507
31666.506
24175.945
4429.2259
4446.1189
24349.931
31884.267
52179.419
161996.43
162833.43
52722.224
32236
24609.578
4467.5508
4470.4116
24874.124
32662.872
53580.722
165137.78
169088.09
54045.644
32758.773
24806.147
4420.1968
4383.4754
25158.248
33156.491
54591.19
170170.56
174830.68
55451.772
33392.493
25080.404
4372.8627
27612.236
36265.937
59502.662
182852.16
180658.51
59407.613
36352.572
27800.125
4174.4904
4693.333
26492.714
35429.66
58926.537
180164.67
184374.24
58069.219
34293.782
25111.993
4991.7387
4378.6921
25980.373
34558.455
57146.109
179027.02
176266.23
56016.607
33779.818
25369.148
4378.9685
4388.5712
25370.552
33431.204
55005.015
171229.96
169839.99
54337.037
32944.634
24942.795
4420.2143
4471.2162
24968.362
32790.298
53772.483
165576.26
163067.41
52829.801
32305.685
24658.336
4467.1463
4448.4667
24387.522
31936.149
52251.081
162158.38
161347.6
51901.027
31698.845
24195.705
4430.6735
4421.78
24108.256
31558.135
51630.916
160594.46
160063.42
51440.952
31433.426
24002.859
4413.3836
4410.7449
23969.145
31369.987
51304.342
159681.4
159468.04
51220.985
31305.268
23907.523
4405.74
4405.4039
23908.711
31288.181
51162.542
159313.66
159261.07
51136.509
31256.278
23871.197
4401.909
4402.4306
23886.509
31258.254
51111.088
159191.18
159184.68
51102.515
31235.79
23855.899
4399.0203
4399.0174
23872.595
31240.186
51082.195
159123.99
159130.68
51078.014
31219.593
23843.172
4395.1572
4395.3866
23864.846
31230.824
51069.62
159109.1
159141.26
51075.243
31216.514
23840.068
4392.5917
4393.9009
23865.088
31231.714
51072.035
159129.25
159162.96
51079.369
31218.809
23841.526
4391.4141
4393.0542
23867.928
31235.677
51078.987
159159.04
159189.34
51086.486
31222.908
23844.415
4390.6749
4391.7594
23864.975
31232.163
51073.384
159139.09
159133.15
51068.453
31211.758
23836.006
4388.7364
4389.8667
23853.579
31217.06
51049.428
159070.02
159070.6
51045.269
31197.068
23824.851
4387.1422
4389.2459
23847.06
31208.402
51035.738
159039.02
159059.73
51039.325
31193.378
23822.041
4386.9372
4388.3434
23843.981
31204.594
51029.345
159021.18
159042.56
51032.81
31189.292
23818.805
4385.8627
4387.3504
23841.392
31201.486
51024.94
159012.71
159050.58
51033.222
31188.863
23818.097
4384.9315
4386.4117
23844.238
31206.019
51034.474
159052.47
159144.61
51058.631
31202.172
23827.095
4384.2488
4392.8389
23875.695
31248.408
51106.83
159304.48
4398.9843
23689.432
31068.145
50934.88
158852.65
158554.9
50848.83
31006.812
23634.46
4391.2945
4392.8066
23641.102
31001.349
50817.462
158444.41
158405.37
50807.366
30985.531
23620.175
4392.5389
4394.3404
23633.839
30990.018
50794.945
158363.99
158348.63
50792.332
30978.13
23615.544
4393.7949
4395.4472
23632.616
30987.554
50788.632
158335.92
158339.19
50790.659
30977.96
23615.659
4394.5845
4395.8269
23631.012
30985.273
50783.999
158321.52
158302.3
50778.484
30970.558
23609.994
4394.4179
4394.7797
23622.709
30974.537
50767.146
158269.91
158245.18
50761.747
30960.182
23602.174
4393.6355
4395.2836
23618.848
30969.177
50758.336
158235.19
158233.86
50760.504
30959.623
23602.01
4394.8099
4396.8521
23620.408
30970.896
50760.356
158230.55
158250.05
50769.197
30965.394
23606.744
4396.8048
4398.9716
23626.65
30978.641
50772.313
158257.2
158278.02
50782.42
30974.006
23613.523
4398.8795
4401.0877
23634.536
30988.765
50787.811
158288.98
158320.84
50803.052
30987.241
23623.619
4400.944
4403.0902
23648.441
31007.353
50818.111
158358.22
158430.13
50848.16
31014.108
23643.335
4402.855
4405.2325
23677.608
31047.344
50886.869
158536.01
158696.13
50949.208
31072.531
23685.848
4405.6135
4409.0496
23738.931
31131.742
51034.619
158938.33
159263.98
51155.402
31191.106
23772.532
4411.1173
4416.9724
23859.448
31296.267
51321.381
159748.18
160394.21
51549.637
31417.913
23939.413
4423.0779
4436.066
24078.181
31599.533
51849.395
161269.44
162109.22
52218.571
31833.794
24252.119
4452.8737
4478.9003
24563.727
32234.014
52814.516
163123.45
165287.35
53683.991
32665.641
24820.233
4483.2843
4432.8049
24777.485
32725.854
53928.429
168461.38
168638.9
54720.552
33389.911
25431.601
4408.1681
4421.3128
25721.915
34105.954
56506.561
177390.96
186494.06
58512.478
34684.117
25691.622
4575.678
4177.0082
26244.505
34231.688
56065.618
174135.92
173976.22
55254.599
33276.218
24989.508
4361.6398
4354.0568
25127.565
33286.376
54956.809
171902.93
173747.49
56325.189
34462.603
26495.795
4176.4354
4422.4964
25923.557
34299.084
56719.184
176898.11
176845.41
56638.967
34257.565
25897.627
4428.8058
4184.2729
26479.471
34505.025
56463.009
175078.66
176370.23
56167.021
33952.888
25522.549
4406.2094
4411.5552
25558.143
33645.757
55263.642
171644.65
170606.45
54617.014
33140.71
25088.405
4440.5012
4489.619
25113.234
32976.243
54026.028
166241.74
163577.33
53049.899
32461.501
24780.748
4483.3437
4458.9558
24472.102
32043.642
52404.967
162536.06
161585.18
51997.093
31764.423
24247.87
4437.6505
4425.3719
24136.592
31594.453
51685.286
160726.73
160084.89
51456.206
31444.843
24012.939
4415.4872
4411.3124
23965.655
31364.885
51294.265
159633.96
159343.66
51185.555
31285.179
23893.611
4405.6704
4404.4304
23887.371
31259.466
51113.857
159156.35
159062.73
51073.939
31219.657
23844.838
4400.9102
4400.797
23859.124
31221.471
51048.789
159002.06
158988.71
51038.528
31198.511
23828.91
4397.9086
4397.9623
23850.478
31210.352
51030.858
158973.2
158985.37
51030.582
31192.795
23824.086
4395.073
4395.2775
23848.193
31208.18
51029.284
158986.34
159007.23
51032.834
31192.9
23823.494
4392.6866
4392.8713
23844.308
31204.012
51024.266
158978.21
158974.96
51020.136
31184.11
23816.449
4389.9435
4390.3519
23835.248
31192.606
51007.486
158935.36
158928.93
51002.13
31172.259
23807.204
4387.7459
4388.4736
23826.111
31180.665
50988.689
158885.27
158869.45
50981.008
31159.33
23797.422
4386.105
4387.139
23819.65
31171.752
50973.417
158845.98
158850.56
50972.929
31155.012
23794.268
4385.8917
4387.2242
23815.985
31166.865
50964.32
158818.83
158827.6
50964.527
31150.148
23790.703
4385.2504
4386.5421
23813.415
31163.559
50959.403
158809.81
158825.9
50962.043
31148.072
23788.917
4384.3851
4386.2336
23814.59
31165.44
50963.698
158830.68
158862.05
50971.72
31153.079
23792.298
4384.0346
4384.8036
23817.38
31170.217
50973.585
158865.85
158936.76
50991.845
31163.288
23799.02
4382.9263
4390.0229
23843.996
31206.268
51035.85
159084.27
4407.5249
23952.417
31349.418
51279.296
159886.31
159307.57
51101.142
31227.036
23850.225
4390.8002
4389.4341
23835.259
31191.175
51016.922
159007.13
158974.47
51008.447
31175.484
23813.848
4388.9096
4390.8867
23829.421
31181.689
50996.34
158920.49
158967.24
51009.305
31177.794
23816.35
4390.9487
4391.67
23831.66
31184.484
50999.735
158927.05
158966.94
51010.237
31178.891
23817.194
4391.072
4391.9616
23831.717
31184.397
50998.559
158919.04
158958.65
51008.83
31178.867
23817.413
4391.7539
4392.8981
23831.005
31182.854
50994.534
158903.65
158926.88
50999.09
31173.113
23813.027
4391.7168
4392.3797
23824.178
31174.038
50980.742
158860.75
158871.96
50981.668
31161.795
23804.265
4390.817
4391.6174
23816.005
31163.472
50964.929
158808.58
158826.15
50968.977
31153.515
23798.017
4390.6915
4392.1173
23812.726
31159.203
50957.78
158774.08
158819.58
50971.187
31155.729
23800.097
4392.3014
4394.3178
23817.018
31164.326
50964.316
158776.44
158840.68
50984.453
31165.252
23807.771
4394.8718
4396.8841
23827.464
31177.78
50985.126
158819.26
158905.46
51013.287
31182.494
23820.543
4397.0965
4398.8388
23845.446
31202.349
51028.64
158925.36
159065.82
51078.482
31219.524
23847.386
4398.9127
4401.6068
23890.537
31264.507
51137.992
159207.77
159531.65
51250.969
31318.881
23920.304
4403.7119
4408.9891
23997.096
31409.348
51389.93
159916.19
160516.08
51597.268
31518.519
24067.584
4414.8484
4426.6274
24189.281
31674.963
51851.037
161222.47
161984.45
52192.085
31886.699
24342.848
4443.0321
4466.7779
24632.65
32257.201
52738.254
162756.19
165178.6
53600.99
32668.983
24867.402
4466.5768
4416.6141
24813.329
32768.872
54072.512
169239.88
170326.08
54680.022
33213.985
25207.376
4381.748
4096.6652
25838.085
33555.467
54577.838
168903.91
167273.89
53846.325
33040.727
25401.612
4078.066
4087.5935
25273.705
32749.681
53175.527
164239.22
161993.44
52450.146
32347.184
24990.44
4077.4487
4062.5517
24764.105
32048.563
51964.109
160877.68
159923.18
51614.097
31818.876
24581.354
4048.0655
4040.0513
24485.199
31669.159
51329.123
159117.86
158565.35
51125.43
31529.812
24366.289
4032.7918
4029.7722
24324.539
31456.971
50973.79
158147.25
157905.99
50878.241
31381.396
24253.313
4026.2585
4025.4647
24248.524
31356.442
50804.165
157700.56
157620.02
50766.508
31315.073
24203.103
4022.8
4023.3099
24216.933
31314.335
50732.524
157524.25
157516.84
50721.752
31288.294
24182.956
4020.9054
4020.8295
24202.427
31295.369
50701.528
157453.84
157472.72
50700.332
31274.419
24172.12
4018.2968
4018.4707
24195.881
31287.233
50689.938
157438.73
157479.59
50696.969
31271.415
24169.366
4016.4215
4016.9602
24196.253
31288.205
50692.477
157459.82
157514.46
50704.639
31275.703
24172.308
4015.3274
4017.1163
24202.495
31296.493
50706.137
157511.01
157579.2
50723.875
31287.772
24181.712
4016.4512
4018.3229
24213.135
31310.011
50727.34
157577.91
157635.45
50742.447
31299.509
24190.968
4017.3717
4018.6881
24218.795
31317.239
50738.921
157611.98
157653.81
50748.109
31302.738
24193.492
4017.0573
4017.9867
24221.512
31320.828
50745.512
157636.63
157686.01
50757.287
31307.945
24197.266
4016.8766
4017.5279
24221.454
31321.135
50746.534
157638.13
157664.3
50749.898
31302.695
24193.057
4015.314
4015.3831
24216.334
31315.236
50739.538
157625.16
157730.05
50764.122
31308.593
24196.359
4013.6114
4016.2452
24252.552
31366.265
50830.991
157955.9
158680.53
51047.373
31479.966
24322.858
4027.5949
4036.3469
24306.82
31429.572
50929.837
158258.59
157888.09
50812.481
31341.784
24228.539
4023.0352
4022.5007
24222.27
31317.119
50744.965
157643.68
157643.62
50743.191
31302.793
24200.429
4022.0334
4023.733
24214.995
31306.443
50723.541
157560.46
157620.31
50737.96
31301.183
24199.781
4023.6155
4024.6595
24213.537
31304.117
50718.826
157547.5
157581
50724.389
31292.592
24193.067
4023.2636
4023.9258
24204.546
31292.45
50700.758
157492.88
157523.85
50706.634
31281.255
24184.463
4022.6031
4023.8047
24199.268
31285.515
50688.965
157447.69
157511.32
50705.477
31281.549
24185.083
4023.5933
4025.4134
24202.039
31288.432
50691.615
157446.68
157514.8
50709.968
31285.534
24188.655
4025.5311
4027.4284
24207.104
31294.353
50699.695
157460.55
157538.38
50721.802
31293.494
24195.072
4027.4744
4029.0231
24215.697
31305.653
50717.553
157502.82
157595.83
50743.635
31307.258
24205.6
4029.4168
4031.2566
24224.596
31316.943
50735.484
157550.07
157619.81
50755.561
31314.457
24211.011
4030.7108
4032.178
24231.503
31326.323
50751.747
157582.71
157678.32
50782.588
31329.954
24222.362
4031.3338
4032.9856
24251.459
31353.404
50798.759
157693.04
157868.08
50859.443
31375.278
24256.237
4032.803
4035.3918
24304.478
31424.262
50918.666
158001.44
158343.02
51038.002
31482.084
24337.037
4037.2703
4042.0189
24419.192
31575.399
51171.395
158690.53
159289.88
51385.512
31691.683
24496.73
4046.5356
4056.1411
24636.792
31865.028
51655.346
160034.66
161138.61
52040.482
32088.147
24790.437
4068.2468
4084.3434
25064.118
32424.502
52540.449
162396.08
164347.86
53246.232
32820.875
25336.793
4096.2781
4101.8876
25671.785
33314.765
54200.121
166916.61
170811.68
54821.136
33576.629
25738.241
4118.2757
4185.1102
26367.585
34366.786
56202.996
174251.55
186906.22
58876.969
34966.35