/*--------------------------------*- C++ -*----------------------------------*\
  =========                 |
  \\      /  F ield         | OpenFOAM: The Open Source CFD Toolbox
   \\    /   O peration     | Website:  https://openfoam.org
    \\  /    A nd           | Version:  7
     \\/     M anipulation  |
\*---------------------------------------------------------------------------*/
FoamFile
{
    version     2.0;
    format      ascii;
    class       volScalarField;
    location    "10";
    object      p;
}
// * * * * * * * * * * * * * * * * * * * * * * * * * * * * * * * * * * * * * //

dimensions      [1 -1 -2 0 0 0 0];

internalField   nonuniform List<scalar> 
24789
(
101232.85
101232.82
101232.73
101232.62
101232.69
101225.13
101224.04
101223.96
101223.93
101223.91
101217.06
101217.06
101217.07
101217.09
101217.76
101209.75
101208.82
101208.76
101208.73
101208.71
101200.16
101200.16
101200.18
101200.23
101201.21
101192.06
101190.98
101190.91
101190.88
101190.87
101180.98
101180.99
101181.01
101181.07
101182.17
101171.56
101170.11
101170
101169.95
101169.93
101158.67
101158.68
101158.71
101158.8
101160.28
101148.21
101146.55
101146.43
101146.38
101146.36
101133.28
101133.29
101133.33
101133.44
101135.23
101121.36
101119.35
101119.21
101119.15
101119.12
101103.94
101103.96
101104.02
101104.18
101106.49
101090.68
101087.73
101087.5
101087.39
101087.35
101070.13
101070.18
101070.3
101070.58
101074.02
101056.55
101052.26
101051.89
101051.71
101051.65
101032.73
101032.78
101032.98
101033.42
101038.59
101020.74
101017.76
101017.61
101017.55
101017.51
100998
100998.01
100998.02
100998.14
101001.33
100980.92
100976.21
100975.89
100975.76
100975.7
100954.2
100954.25
100954.37
100954.72
100960.04
100938.88
100933.08
100932.69
100932.54
100932.47
100910.38
100910.44
100910.58
100910.99
100917.36
100895.81
100888.73
100888.26
100888.09
100888.02
100865.31
100865.37
100865.53
100866.01
100873.74
100849.64
100841.09
100840.55
100840.36
100840.28
100812.12
100812.19
100812.36
100812.89
100821.82
100797.37
100789.1
100788.55
100788.36
100788.32
100788.41
100788.36
100788.52
100788.97
100793.07
100801.13
100802.93
100802.86
100802.92
100803.19
100773.18
100772.73
100773.09
100775.24
100808.48
100760.26
100693.19
100691.16
100693.72
100694.61
100212.77
100233.22
100243.64
100255.98
100441.28
100949.51
100825.86
100811.1
100800.11
100786.04
101060.83
101074.74
101081.74
101089.35
101180.88
101413.99
101411.65
101405.45
101397.94
101378.66
101941.75
101961.26
101978.77
101993.99
101847.95
101466.1
101211.94
101189.32
101171.68
101143.66
101098.91
101100.98
101097.16
101096.46
101210.39
100806.78
100445.87
100418.48
100396.18
100362.63
100318.41
100328.14
100329.05
100330.86
100505.13
100760.23
100715.28
100716.98
100721.78
100726.47
100784.67
100783.66
100783.34
100783.82
100798.77
100793.83
100797.37
100797.23
100797.09
100797.22
100787.43
100787.49
100787.75
100788.18
100791.35
100798.15
100790.88
100790.45
100790.27
100790.21
100812.93
100813.01
100813.2
100813.67
100822.36
100849.86
100841.13
100840.64
100840.43
100840.34
100865.16
100865.25
100865.45
100865.91
100874
100896.06
100888.68
100888.25
100888.07
100888
100909.96
100910.04
100910.23
100910.66
100917.66
100939.17
100933.03
100932.67
100932.51
100932.45
100953.91
100953.98
100954.14
100954.5
100960.33
100981.09
100975.88
100975.56
100975.42
100975.37
100996.85
100996.88
100996.95
100997.18
101001.4
101020.74
101016.75
101016.53
101016.45
101016.43
101032.88
101032.94
101033.13
101033.54
101038.89
101056.82
101052.6
101052.29
101052.13
101052.08
101070.38
101070.43
101070.56
101070.8
101074.27
101090.9
101087.9
101087.7
101087.6
101087.57
101103.85
101103.88
101103.96
101104.12
101106.69
101121.53
101119.28
101119.14
101119.07
101119.04
101133.14
101133.16
101133.22
101133.35
101135.4
101148.36
101146.51
101146.39
101146.34
101146.32
101158.59
101158.61
101158.65
101158.76
101160.46
101171.75
101170.14
101170.03
101169.99
101169.97
101180.85
101180.86
101180.9
101180.98
101182.34
101192.2
101190.94
101190.86
101190.83
101190.82
101200.04
101200.05
101200.08
101200.15
101201.35
101209.87
101208.77
101208.7
101208.68
101208.67
101216.8
101216.81
101216.82
101216.88
101217.85
101225.2
101224.05
101224
101223.99
101223.99
101231.16
101231.17
101231.16
101231.18
101232.52
101224.76
101223.83
101223.83
101223.86
101223.88
101216.7
101216.7
101216.69
101216.7
101217.45
101209.42
101208.52
101208.48
101208.46
101208.46
101199.75
101199.75
101199.76
101199.8
101200.76
101191.47
101190.23
101190.16
101190.13
101190.12
101180.13
101180.14
101180.16
101180.23
101181.57
101171
101169.57
101169.48
101169.46
101169.44
101158.03
101158.03
101158.05
101158.12
101159.6
101147.34
101145.61
101145.51
101145.48
101145.47
101132.15
101132.16
101132.18
101132.27
101134.12
101119.97
101117.61
101117.46
101117.41
101117.39
101101.99
101101.99
101102.04
101102.19
101104.86
101088.85
101085.63
101085.43
101085.36
101085.35
101067.59
101067.6
101067.68
101067.94
101071.88
101054.29
101049.41
101049.07
101048.95
101048.93
101030.53
101030.55
101030.67
101031.04
101036.33
101018.07
101013.96
101013.72
101013.63
101013.6
100994.14
100994.17
100994.23
100994.43
100998.45
100977.85
100973.37
100973.15
100973.1
100973.07
100950.65
100950.66
100950.74
100951.04
100956.61
100935.2
100928.97
100928.62
100928.52
100928.49
100906.15
100906.17
100906.27
100906.64
100913.41
100891.65
100884.07
100883.64
100883.52
100883.49
100860.7
100860.72
100860.84
100861.29
100869.49
100845.65
100836.86
100836.4
100836.28
100836.27
100808.9
100808.91
100809.01
100809.46
100818.2
100793.8
100786.68
100786.3
100786.23
100786.25
100782.67
100782.66
100782.83
100783.24
100786.25
100790.48
100794.61
100794.34
100794.15
100794.28
100785.39
100784.51
100784.39
100784.77
100791.8
100776.23
100738.33
100739.42
100743.03
100747.28
100439.27
100443.63
100439.3
100436.66
100555.45
100574.02
99981.15
99931.317
99889.79
99835.405
101883.5
101860.58
101839.15
101816.84
101652.19
101358.08
101125.16
101108.39
101099.03
101074.71
101800.03
101830.15
101852.31
101870.02
101760.01
101354.92
101358.67
101364.55
101372.15
101372.66
101852.38
101836.83
101822.45
101802.73
101585.78
100547.73
100162.63
100116.2
100072.94
100019.58
100399.62
100407.92
100409.4
100414.68
100503.42
100744.28
100753.52
100755.08
100756.65
100757.81
100788.45
100787.96
100787.97
100787.69
100778.17
100787.88
100796.7
100796.65
100796.42
100796.53
100783.12
100783.19
100783.52
100784.04
100785.89
100792.76
100786.71
100786.28
100786.08
100785.99
100808.48
100808.58
100808.79
100809.31
100817.26
100845.22
100837.35
100836.84
100836.64
100836.55
100860.9
100860.99
100861.21
100861.75
100869.45
100891.84
100884.92
100884.44
100884.24
100884.16
100906.35
100906.43
100906.63
100907.11
100913.66
100935.5
100929.59
100929.17
100928.99
100928.92
100950.55
100950.62
100950.8
100951.24
100956.97
100978.14
100973.18
100972.83
100972.68
100972.63
100994.33
100994.36
100994.46
100994.72
100998.7
101018.35
101014.71
101014.46
101014.36
101014.32
101031.42
101031.49
101031.71
101032.13
101036.83
101054.81
101050.53
101050.15
101049.95
101049.88
101068.23
101068.29
101068.45
101068.75
101072.31
101089.18
101086.28
101086.05
101085.93
101085.89
101102.22
101102.25
101102.35
101102.55
101105.13
101120.19
101117.9
101117.73
101117.65
101117.62
101132.2
101132.22
101132.28
101132.41
101134.3
101147.48
101145.73
101145.6
101145.54
101145.52
101157.9
101157.92
101157.96
101158.08
101159.71
101171.11
101169.58
101169.46
101169.41
101169.39
101180.07
101180.09
101180.14
101180.25
101181.71
101191.64
101190.36
101190.26
101190.22
101190.2
101199.71
101199.72
101199.75
101199.83
101200.91
101209.57
101208.62
101208.56
101208.53
101208.52
101216.69
101216.69
101216.7
101216.75
101217.63
101225.04
101224.56
101224.6
101224.64
101224.64
101222.64
101222.62
101222.63
101222.69
101223.92
101216.68
101215.64
101215.57
101215.55
101215.54
101207.53
101207.54
101207.55
101207.62
101208.67
101200.01
101198.77
101198.69
101198.65
101198.63
101188.99
101189
101189.05
101189.16
101190.68
101180.82
101179.24
101179.11
101179.06
101179.04
101168.52
101168.53
101168.57
101168.67
101170.24
101158.84
101157.25
101157.14
101157.09
101157.07
101144.42
101144.43
101144.48
101144.61
101146.5
101133.28
101131.27
101131.13
101131.07
101131.05
101116.47
101116.49
101116.55
101116.72
101119.09
101104.07
101101.68
101101.51
101101.43
101101.41
101084.92
101084.94
101085.03
101085.23
101088.05
101071.17
101068.16
101067.95
101067.85
101067.82
101049.47
101049.5
101049.61
101049.87
101053.52
101035.31
101031.57
101031.3
101031.19
101031.14
101011.41
101011.45
101011.58
101011.9
101016.26
100996.31
100991.62
100991.27
100991.11
100991.05
100969.19
100969.27
100969.47
100969.92
100975.6
100954.67
100949
100948.58
100948.38
100948.29
100926.45
100926.52
100926.71
100927.14
100933.23
100911.51
100905.2
100904.78
100904.59
100904.52
100881.55
100881.62
100881.83
100882.34
100889.74
100867.98
100860.49
100860
100859.79
100859.69
100833.83
100833.94
100834.2
100834.83
100843.88
100816.41
100807.33
100806.79
100806.57
100806.48
100782.26
100782.3
100782.49
100783.04
100791.85
100785.99
100781.38
100780.98
100780.84
100780.86
100792.82
100792.64
100792.73
100793.05
100793.99
100808.9
100789.02
100787.95
100787.96
100788.62
100743.44
100741.49
100738.15
100738.97
100785.82
100492.05
100333.39
100322.38
100312.62
100293.72
100488.19
100518.01
100543.85
100572.42
100828.63
101458.12
101548.59
101555.45
101560.62
101562.67
101221.96
101243.46
101255.51
101266.61
101326.85
101858.71
102006.57
101988.11
101965.34
101939.77
102441.11
102664.64
102688.91
102704.51
102711.73
102585.99
102578.99
102568.17
102550.63
102334.08
102081.13
101782.83
101779.99
101783.67
101764.48
101626.81
101630.57
101624.92
101624.62
101790
101440.12
101519.99
101531.56
101541.37
101549.66
101350.18
101359.53
101367.84
101372.24
101354.94
100584.8
100319.16
100291.18
100267.99
100230.07
100396.67
100404.37
100404.38
100408.04
100493.02
100729.58
100732.86
100734.84
100737.12
100738.97
100773.26
100772.9
100773.05
100773.17
100771.56
100786.31
100794.69
100794.74
100794.6
100794.65
100786.03
100786.06
100786.26
100786.56
100786.31
100793.59
100788.85
100788.55
100788.44
100788.4
100810.73
100810.79
100810.91
100811.29
100818.18
100846.27
100839.3
100838.9
100838.77
100838.7
100863.16
100863.23
100863.38
100863.79
100870.55
100892.95
100886.81
100886.42
100886.28
100886.21
100908.29
100908.35
100908.5
100908.88
100914.73
100936.52
100931.18
100930.83
100930.69
100930.62
100952.2
100952.27
100952.42
100952.77
100957.88
100978.99
100974.37
100974.04
100973.91
100973.85
100995.21
100995.25
100995.35
100995.6
100999.45
101019.09
101015.61
101015.38
101015.28
101015.24
101033.75
101033.8
101033.91
101034.17
101037.63
101055.61
101052.47
101052.24
101052.14
101052.09
101069.99
101070.03
101070.1
101070.29
101073
101089.74
101087.33
101087.16
101087.09
101087.06
101103.18
101103.21
101103.27
101103.43
101105.6
101120.6
101118.55
101118.4
101118.33
101118.3
101132.65
101132.67
101132.72
101132.85
101134.63
101147.73
101146.09
101145.97
101145.92
101145.9
101158.16
101158.18
101158.23
101158.34
101159.9
101171.27
101169.76
101169.64
101169.59
101169.56
101180.31
101180.33
101180.38
101180.49
101181.87
101191.82
101190.6
101190.51
101190.46
101190.45
101199.86
101199.88
101199.91
101199.99
101201.07
101209.72
101208.71
101208.64
101208.6
101208.58
101216.55
101216.56
101216.6
101216.69
101217.76
101225.13
101223.99
101223.95
101223.95
101223.95
101223.21
101223.23
101223.28
101223.39
101225.18
101217.88
101216.93
101216.87
101216.84
101216.82
101208.74
101208.75
101208.79
101208.85
101209.86
101201.26
101200.09
101200.02
101199.98
101199.96
101190.68
101190.69
101190.73
101190.8
101192.04
101182.14
101180.73
101180.63
101180.59
101180.58
101169.79
101169.81
101169.86
101169.96
101171.55
101160.23
101158.59
101158.49
101158.44
101158.42
101146.23
101146.25
101146.29
101146.4
101148.13
101135.11
101133.19
101133.07
101133.02
101133
101118.92
101118.94
101118.99
101119.11
101121.19
101106.29
101103.99
101103.85
101103.8
101103.78
101087.56
101087.59
101087.66
101087.82
101090.53
101073.95
101071.06
101070.89
101070.82
101070.79
101053.18
101053.21
101053.29
101053.48
101056.69
101038.78
101035.19
101034.97
101034.87
101034.83
101015.96
101016.01
101016.11
101016.35
101020.27
101000.75
100996.47
100996.22
100996.12
100996.07
100974.95
100975.01
100975.14
100975.44
100980.44
100959.53
100954.1
100953.79
100953.66
100953.61
100932.04
100932.1
100932.23
100932.56
100938.33
100916.78
100910.53
100910.19
100910.05
100909.99
100887.87
100887.93
100888.07
100888.43
100895.23
100873.17
100865.74
100865.36
100865.22
100865.16
100840.92
100840.98
100841.11
100841.5
100849.33
100821.99
100814.42
100814.06
100813.94
100813.9
100791.45
100791.46
100791.55
100791.87
100797.84
100791.33
100789.93
100789.71
100789.6
100789.61
100798.68
100798.5
100798.57
100798.64
100794.72
100794.58
100772.84
100771.99
100772.36
100773.2
100713.46
100710.18
100705.93
100704.9
100762.62
100521.67
100380.69
100382.34
100384.3
100377.66
100240.29
100273.87
100296.5
100326.1
100735.03
101268.17
101207.76
101211.24
101216.72
101211.88
101079.88
101114.43
101141.48
101172.5
101504.43
102010.91
102574.53
102620.42
102656.15
102699.11
101313.17
101341.02
101359.48
101373.75
101433.17
101098.9
100949.35
100938.43
100930.83
100908.92
100963.59
100965.1
100966.63
100970.44
101012.31
100446.65
100228.54
100210.52
100194.36
100169.34
100690.71
100689.75
100686.87
100688.96
100759.74
100807.24
100768.75
100766.25
100765.69
100766.11
100801.92
100801.73
100801.77
100801.95
100801.5
100793.31
100790.05
100789.62
100789.41
100789.43
100788.97
100789.04
100789.26
100789.78
100797.26
100821.6
100813.14
100812.62
100812.41
100812.31
100840.13
100840.22
100840.43
100840.96
100849.32
100873.35
100865.65
100865.13
100864.92
100864.83
100887.63
100887.71
100887.91
100888.4
100895.49
100917.08
100910.66
100910.21
100910.02
100909.93
100932.08
100932.16
100932.33
100932.74
100938.61
100959.78
100954.22
100953.81
100953.63
100953.55
100975.05
100975.11
100975.28
100975.65
100980.66
101000.97
100997.12
100996.88
100996.78
100996.73
101016.79
101016.81
101016.88
101017.08
101020.44
101038.79
101034.55
101034.19
101034
101033.93
101052.55
101052.6
101052.75
101053.05
101056.77
101074.08
101070.84
101070.58
101070.45
101070.4
101087.41
101087.45
101087.55
101087.77
101090.64
101106.42
101104.1
101103.93
101103.85
101103.82
101119.02
101119.04
101119.1
101119.24
101121.28
101135.14
101133.24
101133.1
101133.05
101133.02
101146.21
101146.23
101146.28
101146.39
101148.11
101160.17
101158.56
101158.45
101158.4
101158.38
101169.73
101169.74
101169.79
101169.91
101171.47
101182.1
101180.79
101180.69
101180.65
101180.63
101190.72
101190.73
101190.76
101190.84
101192
101201.19
101200.05
101199.96
101199.92
101199.91
101208.71
101208.72
101208.74
101208.81
101209.78
101217.84
101217.03
101216.98
101216.96
101216.95
101223.78
101223.78
101223.78
101223.85
101225.13
101224.26
101222.95
101222.86
101222.82
101222.82
101215.88
101215.89
101215.92
101215.99
101217
101209
101207.92
101207.84
101207.8
101207.78
101199.08
101199.09
101199.12
101199.2
101200.34
101191.03
101189.62
101189.51
101189.46
101189.44
101179.5
101179.51
101179.56
101179.67
101181.14
101170.59
101169.12
101169.01
101168.96
101168.94
101157.56
101157.57
101157.6
101157.7
101159.19
101146.86
101145.1
101144.98
101144.93
101144.91
101131.52
101131.54
101131.59
101131.72
101133.64
101119.48
101117.14
101116.96
101116.88
101116.85
101101.56
101101.59
101101.66
101101.84
101104.38
101088.34
101085.31
101085.08
101084.97
101084.94
101067.37
101067.4
101067.52
101067.79
101071.34
101053.69
101049.44
101049.09
101048.92
101048.87
101030.41
101030.46
101030.61
101030.98
101035.65
101017.27
101013.31
101013.03
101012.92
101012.87
100993.19
100993.22
100993.31
100993.56
100997.58
100976.87
100971.98
100971.66
100971.55
100971.51
100949.49
100949.53
100949.66
100950.03
100955.69
100934.32
100928.45
100928.07
100927.93
100927.88
100905.69
100905.73
100905.85
100906.25
100912.57
100890.91
100883.82
100883.36
100883.19
100883.14
100860.69
100860.73
100860.86
100861.31
100868.9
100844.95
100836.46
100835.96
100835.8
100835.74
100807.61
100807.66
100807.79
100808.28
100817.21
100792.52
100784.63
100784.17
100784.04
100784.01
100782.38
100782.35
100782.5
100782.91
100787.06
100796.22
100797.39
100797.1
100796.94
100797.12
100786.32
100785.74
100785.72
100786.89
100805.36
100788.26
100746.03
100746.39
100749.98
100751.71
100367.01
100377.95
100380.16
100384.02
100507.77
100689.7
100352.33
100310.13
100272.33
100227.19
101883.6
101869.17
101855.69
101835.62
101642.23
101164.74
101052.79
101042.74
101039.28
101020.39
101440.55
101223.8
101435.35
101470.96
101231.47
101207.16
101186.88
101157.51
101571.91
101565.93
101559.61
101551.45
101477.84
102331.13
102340.76
102345.72
102341.74
102273.98
101713.96
101840.71
101850.94
101862.64
101853.13
101367.66
101395.63
101400.41
101410.89
101456.17
101855.55
101858.96
101854.45
101851.53
101847.81
101799.48
102312.42
101751.66
101855.66
101303.34
101311.67
101299.25
101303.33
101299.57
101297.92
101298.5
101299.96
101222.93
101222.92
101222.91
101222.94
101223.88
101216.57
101215.43
101215.36
101215.35
101215.35
101207.1
101207.11
101207.13
101207.22
101208.57
101199.93
101198.51
101198.4
101198.35
101198.33
101188.74
101188.74
101188.78
101188.91
101190.63
101180.75
101179
101178.85
101178.79
101178.76
101167.93
101167.94
101167.98
101168.13
101170.11
101158.74
101156.84
101156.69
101156.62
101156.6
101144.07
101144.09
101144.13
101144.29
101146.44
101133.25
101131.22
101131.07
101131.01
101130.98
101116.01
101116.03
101116.1
101116.29
101118.88
101103.48
101100.12
101099.84
101099.72
101099.68
101082.8
101082.85
101083.01
101083.37
101087.41
101070.61
101066.88
101066.56
101066.42
101066.38
101047.56
101047.6
101047.76
101048.16
101052.88
101034.5
101030.34
101030.02
101029.89
101029.83
101009.49
101009.54
101009.68
101010.07
101015.03
100994.73
100988.95
100988.46
100988.25
100988.18
100965.77
100965.86
100966.15
100966.78
100973.84
100952.48
100944.82
100944.15
100943.86
100943.78
100920.42
100920.54
100920.94
100921.77
100930.87
100909.28
100901.62
100901.02
100900.76
100900.66
100876.1
100876.21
100876.57
100877.4
100887.2
100864.87
100854.32
100853.46
100853.08
100852.97
100826.4
100826.58
100827.15
100828.29
100840.78
100814.01
100805.58
100804.98
100804.72
100804.6
100782.51
100782.61
100782.92
100783.54
100790.82
100785.18
100783.43
100782.96
100782.68
100782.65
100789.14
100789.07
100789.34
100789.54
100783.96
100778.99
100785.37
100785.91
100786.13
100786.67
100750.56
100750
100748.79
100746.65
100728.61
100435.7
100246.74
100228.18
100214.62
100193.64
100925.38
100930.31
100928.54
100927.74
100936.11
100958.42
100766.74
100747.45
100733.17
100700.09
101454.75
101461.07
101471.09
101477.83
101495.89
101742.65
101752.32
101768.81
101759.28
101497.8
101514.8
101497.27
101490.26
101782.42
101824.08
101748.08
101740.06
101740.26
101714.66
102866.74
102822.39
102788.6
102746.06
102376.22
102163.32
102239.66
102260.08
102281.29
102301.21
101452.86
101460.26
101471.22
101478.26
101507.01
100973.78
100768.75
100748.93
100734.65
100701.33
100932.4
100937.18
100935.18
100934.15
100942.48
100435.04
100243.56
100224.93
100211.29
100190.28
100755.66
100755
100753.4
100750.84
100730.49
100783.53
100790.94
100791.55
100791.81
100792.42
100795.69
100795.51
100795.59
100795.55
100788.23
100789.18
100788.29
100787.93
100787.74
100787.74
100789.56
100789.6
100789.74
100790.13
100795.73
100820.18
100813.14
100812.74
100812.61
100812.55
100840.26
100840.33
100840.5
100840.97
100848.39
100873.03
100866.54
100866.14
100865.99
100865.92
100888.54
100888.61
100888.76
100889.15
100895.29
100916.97
100911.12
100910.74
100910.59
100910.52
100933.06
100933.12
100933.23
100933.55
100938.58
100959.82
100955.06
100954.74
100954.61
100954.56
100975.65
100975.7
100975.83
100976.13
100980.59
101000.86
100996.87
100996.59
100996.48
100996.43
101016.05
101016.09
101016.2
101016.48
101020.3
101038.87
101034.98
101034.65
101034.48
101034.42
101053.35
101053.4
101053.51
101053.74
101056.86
101074.21
101071.54
101071.35
101071.26
101071.23
101088.04
101088.07
101088.15
101088.33
101090.78
101106.51
101104.28
101104.12
101104.04
101104.01
101119.09
101119.12
101119.18
101119.32
101121.34
101135.21
101133.36
101133.22
101133.16
101133.14
101146.4
101146.42
101146.46
101146.58
101148.21
101160.35
101158.84
101158.73
101158.68
101158.67
101170.13
101170.14
101170.18
101170.29
101171.68
101182.27
101180.99
101180.9
101180.85
101180.84
101190.86
101190.87
101190.9
101190.98
101192.13
101201.28
101200.2
101200.11
101200.08
101200.06
101208.73
101208.74
101208.77
101208.84
101209.79
101217.72
101216.8
101216.73
101216.71
101216.7
101224.06
101224.07
101224.08
101224.13
101225.09
101232.19
101231.3
101231.28
101231.29
101231.29
101224.17
101223.13
101223.06
101223.04
101223.04
101216.19
101216.2
101216.21
101216.24
101217.06
101209.15
101208.15
101208.08
101208.04
101208.02
101199.23
101199.23
101199.26
101199.33
101200.5
101191.38
101190.16
101190.07
101190.03
101190.01
101180.05
101180.07
101180.1
101180.19
101181.57
101171.09
101169.71
101169.61
101169.56
101169.53
101157.88
101157.9
101157.93
101158.04
101159.66
101147.52
101145.96
101145.85
101145.79
101145.76
101132.2
101132.21
101132.25
101132.38
101134.24
101120.19
101118.19
101118.05
101117.97
101117.94
101102.09
101102.11
101102.19
101102.38
101105
101089.24
101086.62
101086.42
101086.32
101086.27
101068.64
101068.68
101068.79
101069.04
101072.41
101055.08
101051.9
101051.66
101051.54
101051.48
101032
101032.05
101032.18
101032.5
101036.61
101017.72
101013.82
101013.53
101013.39
101013.32
100991.89
100991.95
100992.13
100992.54
100997.76
100977.7
100972.76
100972.4
100972.22
100972.14
100949.23
100949.31
100949.54
100950.07
100956.67
100935.9
100930.08
100929.67
100929.48
100929.39
100906
100906.09
100906.33
100906.9
100914.39
100893.4
100886.77
100886.34
100886.16
100886.07
100861.36
100861.46
100861.73
100862.38
100871.33
100847.81
100840.03
100839.57
100839.39
100839.28
100808.7
100808.82
100809.14
100809.87
100820.05
100796.7
100789.52
100789.05
100788.84
100788.75
100786.7
100786.74
100787.12
100787.82
100793.09
100801.62
100803.08
100803.03
100802.99
100803.15
100760.01
100759.7
100760.56
100763.52
100804.97
100762.88
100695.96
100693.87
100696.65
100697.59
100162.86
100188.11
100204.84
100223.62
100446.85
101004.7
100960.7
100957.07
100955.88
100954.51
100898.75
100920.77
100928.27
100939.15
101092.92
101428.8
101360.38
101344.28
101324.55
101296.41
102683.37
102640.58
102606.42
102562.06
101996.59
101498.95
101156.01
101122.96
101094.5
101059.46
101526.85
101518.72
101509.29
101498.6
101430.17
101339.11
101340.99
101346.29
101353.16
101353.17
101078.03
101102.1
101111.11
101127.32
101350.26
101164.12
101057.71
101047.52
101043.61
101024.58
101219.27
101240.57
101251.78
101261.79
101314.55
101491.04
101259.94
101236.95
101217.73
101187.59
101568.3
101563.22
101557.58
101550.99
101501.93
100994.86
100786.86
100764.75
100745.45
100712.03
100923.62
100927.77
100925.86
100925.5
100949.77
100433.86
100240.43
100220.99
100205.49
100182.71
100770.86
100770.27
100768.4
100765.6
100740.88
100789.22
100799.17
100800.11
100800.78
100801.47
100796.19
100796
100796.07
100796.03
100788.98
100789.78
100789.16
100788.84
100788.68
100788.69
100790.65
100790.67
100790.78
100791.12
100796.49
100820.78
100814.06
100813.72
100813.63
100813.59
100841.3
100841.37
100841.5
100841.9
100848.88
100873.43
100867.15
100866.79
100866.69
100866.64
100889.22
100889.27
100889.38
100889.74
100895.67
100917.34
100911.82
100911.48
100911.36
100911.3
100933.62
100933.67
100933.77
100934.06
100938.88
100960.05
100955.53
100955.25
100955.14
100955.09
100976.16
100976.21
100976.31
100976.59
100980.76
101000.93
100997.25
100997.02
100996.93
100996.89
101016.63
101016.67
101016.77
101017
101020.4
101039.12
101036.12
101035.92
101035.85
101035.81
101054.09
101054.12
101054.19
101054.37
101057.14
101074.44
101071.87
101071.7
101071.63
101071.6
101088.33
101088.36
101088.42
101088.59
101090.95
101106.61
101104.51
101104.36
101104.31
101104.28
101119.27
101119.3
101119.35
101119.47
101121.38
101135.25
101133.46
101133.33
101133.29
101133.26
101146.49
101146.51
101146.55
101146.67
101148.25
101160.39
101158.94
101158.83
101158.79
101158.77
101170.23
101170.25
101170.29
101170.39
101171.72
101182.3
101181.11
101181.02
101180.99
101180.97
101190.93
101190.94
101190.98
101191.06
101192.15
101201.31
101200.27
101200.19
101200.16
101200.14
101208.77
101208.78
101208.81
101208.88
101209.82
101217.72
101216.85
101216.78
101216.74
101216.73
101223.98
101223.99
101224.04
101224.12
101225.06
101231.88
101231.03
101230.98
101230.97
101230.97
101223.99
101223.65
101223.7
101223.77
101223.78
101214.99
101215.01
101215.05
101215.16
101216.57
101208.54
101207.03
101206.9
101206.84
101206.81
101197.85
101197.87
101197.95
101198.11
101199.84
101190.54
101188.5
101188.31
101188.21
101188.18
101178.2
101178.23
101178.33
101178.53
101180.64
101170.02
101167.76
101167.55
101167.44
101167.4
101155.99
101156.02
101156.12
101156.32
101158.61
101146.29
101143.8
101143.59
101143.49
101143.45
101130.28
101130.31
101130.4
101130.59
101133.04
101118.77
101115.96
101115.73
101115.62
101115.58
101099.64
101099.69
101099.85
101100.15
101103.48
101087.36
101083.29
101082.91
101082.72
101082.65
101065.79
101065.85
101066.03
101066.39
101070.47
101052.73
101047.55
101047.07
101046.83
101046.75
101028.87
101028.93
101029.12
101029.53
101034.32
101014.92
101009.47
101009.01
101008.79
101008.71
100987.8
100987.9
100988.16
100988.69
100994.68
100973.77
100966.54
100965.89
100965.57
100965.46
100944.38
100944.51
100944.83
100945.45
100952.59
100930.91
100922.14
100921.34
100920.93
100920.79
100899.73
100899.85
100900.18
100900.86
100909.16
100887.04
100877.01
100876.15
100875.74
100875.59
100853.95
100854.11
100854.5
100855.28
100864.82
100840.38
100828.53
100827.48
100826.95
100826.77
100803.26
100803.36
100803.63
100804.3
100813.47
100790.16
100781.34
100780.55
100780.24
100780.18
100780.25
100780.27
100780.59
100781.16
100783.77
100782.39
100784.42
100783.99
100783.7
100783.85
100789.18
100788.59
100788.08
100787.47
100781.89
100733.49
100751.59
100753.52
100754.86
100755.2
100174.81
100197.71
100213.62
100233.58
100428.32
100937.47
100915.19
100914.79
100916.06
100911.69
100703.8
100737.4
100757.93
100780.87
100973.3
101170.01
100966.36
100958.15
100952.46
100937.06
100587.05
100603.54
100609.44
100621.44
100860.8
100518.67
100295.16
100284.98
100277.29
100262.18
100744.9
100741.37
100738.27
100737.32
100769.36
100797.58
100788.63
100788.52
100788.88
100789.85
100785.13
100784.95
100785.13
100785.55
100787.07
100785.33
100780.19
100779.71
100779.5
100779.51
100782
100782.01
100782.22
100782.87
100792.79
100816.49
100806.45
100805.87
100805.65
100805.6
100831.61
100831.69
100831.96
100832.65
100843.38
100867.38
100858.76
100858.25
100858.03
100857.95
100879.62
100879.67
100879.87
100880.41
100889.09
100910.92
100903.38
100902.89
100902.68
100902.62
100924.73
100924.79
100924.99
100925.46
100932.63
100954.16
100947.81
100947.4
100947.21
100947.14
100968
100968.04
100968.21
100968.64
100975.07
100995.82
100990.23
100989.85
100989.68
100989.63
101010.52
101010.55
101010.67
101010.98
101015.85
101035.12
101030.83
101030.55
101030.43
101030.4
101048.98
101049
101049.1
101049.37
101053.45
101071.12
101067.67
101067.44
101067.34
101067.31
101084.56
101084.58
101084.66
101084.86
101087.96
101104
101101.23
101101.05
101100.96
101100.94
101116.47
101116.48
101116.52
101116.66
101119.08
101133.28
101130.97
101130.82
101130.75
101130.74
101144.35
101144.36
101144.4
101144.52
101146.51
101158.82
101156.87
101156.73
101156.67
101156.66
101168.41
101168.42
101168.45
101168.55
101170.23
101180.83
101179.02
101178.89
101178.82
101178.81
101189.03
101189.03
101189.06
101189.16
101190.69
101200
101198.53
101198.43
101198.38
101198.37
101207.54
101207.54
101207.55
101207.6
101208.67
101216.66
101215.45
101215.38
101215.35
101215.34
101223.79
101223.74
101223.65
101223.59
101223.96
101223.9
101222.79
101222.74
101222.74
101222.76
101215.56
101215.56
101215.58
101215.63
101216.71
101208.77
101207.44
101207.35
101207.31
101207.3
101198.63
101198.64
101198.69
101198.79
101200.19
101190.96
101189.31
101189.19
101189.13
101189.11
101179.27
101179.28
101179.34
101179.46
101181.12
101170.51
101168.63
101168.49
101168.43
101168.42
101157.22
101157.23
101157.28
101157.4
101159.18
101146.95
101144.97
101144.84
101144.78
101144.76
101131.72
101131.74
101131.79
101131.9
101133.8
101119.54
101117.12
101116.96
101116.88
101116.86
101100.99
101101.02
101101.13
101101.34
101104.3
101088.33
101084.9
101084.64
101084.5
101084.46
101067.84
101067.88
101067.99
101068.22
101071.58
101053.97
101049.95
101049.65
101049.51
101049.47
101031.45
101031.48
101031.59
101031.83
101035.64
101016.38
101011.8
101011.49
101011.34
101011.3
100990.68
100990.73
100990.9
100991.25
100996.39
100975.83
100969.83
100969.39
100969.17
100969.09
100947.29
100947.38
100947.63
100948.1
100954.75
100933.41
100925.84
100925.29
100925
100924.9
100904.11
100904.18
100904.38
100904.82
100911.93
100890.3
100881.58
100880.99
100880.69
100880.59
100858.04
100858.17
100858.48
100859.09
100868.45
100844.85
100834.52
100833.82
100833.45
100833.3
100809.42
100809.48
100809.62
100810.03
100818.2
100795.04
100788.07
100787.66
100787.51
100787.46
100786.66
100786.67
100786.81
100787.1
100788.99
100791.69
100796.13
100796.07
100795.99
100796.15
100783.9
100782.88
100782.48
100782.83
100795.36
100757.52
100715.45
100717.1
100721.79
100726.38
100320.6
100330.52
100331.82
100334.06
100506.01
100802.46
100446.68
100419.68
100397.43
100363.86
101095.41
101097.58
101093.42
101092.03
101202.28
101466.07
101208.47
101184.04
101164.7
101136.07
101917.93
101936.88
101953.83
101969.19
101825.85