/*--------------------------------*- C++ -*----------------------------------*\
  =========                 |
  \\      /  F ield         | OpenFOAM: The Open Source CFD Toolbox
   \\    /   O peration     | Website:  https://openfoam.org
    \\  /    A nd           | Version:  7
     \\/     M anipulation  |
\*---------------------------------------------------------------------------*/
FoamFile
{
    version     2.0;
    format      ascii;
    class       volScalarField;
    location    "460";
    object      alphat;
}
// * * * * * * * * * * * * * * * * * * * * * * * * * * * * * * * * * * * * * //

dimensions      [1 -1 -1 0 0 0 0];

internalField   nonuniform List<scalar> 
24866
(
9.3761505
9.3841602
9.3804312
9.600061
9.7932431
9.7906864
9.7859195
9.7909243
9.7900662
9.7843573
9.784663
9.7847061
9.7843848
9.790106
9.7910218
9.7859022
9.7904812
9.7920005
9.7909889
9.7856755
9.7738817
9.7908003
9.8265762
9.8117749
9.7815737
9.7769374
9.7861513
9.8143433
9.808772
9.7776373
9.7884121
9.7920135
9.7920147
9.7884219
9.7776933
9.8088279
9.8144696
9.7862599
9.7768109
9.7813705
9.8116965
9.8265236
9.7907894
9.7738852
9.7857051
9.7910481
9.7920244
9.7905699
9.7859135
9.7909322
9.790204
9.7844984
9.7846603
9.7846774
9.7844549
9.7900645
9.790785
9.7857831
9.7906442
9.7932988
9.7978315
9.7940376
9.7978214
9.7939663
9.7866561
9.7898749
9.7967182
9.7927476
9.7838412
9.7838276
9.7838563
9.7838457
9.7928083
9.7967758
9.7898838
9.7865028
9.7933696
9.7966047
9.7924786
9.7938
9.7876438
9.7786311
9.7766954
9.7893182
9.7936435
9.7998176
9.7817407
9.7771216
9.786169
9.8003724
9.7935483
9.7880387
9.7868541
9.7877892
9.7858569
9.7827741
9.7857506
9.7845279
9.7887412
9.7859036
9.7833319
9.7829452
9.7829986
9.7837457
9.7845831
9.7845859
9.784373
9.787723
9.7866273
9.7862691
9.7822982
9.7905549
9.7952475
9.7926494
9.7878233
9.7850881
9.7840885
9.783501
9.7839171
9.7842913
9.784209
9.7835998
9.7840704
9.7831731
9.7826159
9.7833538
9.7856982
9.7828192
9.7819959
9.7822752
9.7833317
9.7843632
9.7849769
9.7846763
9.7847805
9.7844152
9.7839212
9.784379
9.7840912
9.7866319
9.7878268
9.7823077
9.7905587
9.7952497
9.6715731
9.6676689
9.5850143
9.5912538
9.5991807
9.599177
9.5912439
9.5885167
9.5517043
9.6981548
9.7013117
9.5592264
9.588426
9.5906879
9.5837584
9.553253
9.5046983
9.5225214
9.5763689
9.5894466
9.5978336
9.5973311
9.5963591
9.5939936
9.5929934
9.589848
9.5873798
9.5780782
9.5780318
9.5873656
9.5897361
9.5926835
9.5944672
9.59604
9.5879696
9.5969471
9.673508
9.6714879
9.5881697
9.5125115
9.5982926
9.6002767
9.5907359
9.789347
9.7854498
9.7893552
9.7859607
9.7832894
9.7856441
9.7827922
9.7819619
9.7822265
9.7832568
9.7842574
9.7848518
9.7849826
9.7851036
9.7847861
9.7843007
9.7845965
9.7868634
9.7877291
9.7935612
9.7862815
9.5910749
9.6023236
9.6283738
9.6982223
9.5516501
9.5884931
9.3922527
9.3779192
9.379927
9.3799226
9.3779099
9.3922637
9.351963
9.3511712
9.3738175
9.3984789
9.3730222
9.3461485
9.3300043
9.3493755
9.3794575
9.3773343
9.378764
9.3773952
9.3844337
9.3978593
9.3777856
9.3748385
9.3923643
9.3819776
9.3820467
9.3924721
9.3748102
9.3774895
9.398392
9.2050831
9.1936071
9.1863283
9.1866032
9.1932972
9.3838181
9.5957409
9.5945975
9.5924906
9.5898315
9.587358
9.5780518
9.5780565
9.5875207
9.5895664
9.5931548
9.5940101
9.5966186
9.5972561
9.5980047
9.5894194
9.576416
9.5225778
9.6616188
9.7153418
9.7003498
9.5533689
9.583917
9.590805
9.5882671
9.5589721
9.7013507
9.6361751
9.5593091
9.5557436
9.5106951
9.5886583
9.58351
9.6210145
9.6665239
9.8004265
9.78621
9.7770978
9.788045
9.7936318
9.7878
9.7845988
9.7842242
9.7846875
9.7840865
9.7843732
9.7842618
9.7837458
9.7829799
9.7825167
9.7834031
9.7827793
9.782983
9.7832648
9.7833447
9.7831922
9.7829701
9.7836204
9.7837675
9.7858744
9.789313
9.7767072
9.7828038
9.7830275
9.7845619
9.7833607
9.7826365
9.7822904
9.7822381
9.7825226
9.7834029
9.785954
9.7832988
9.7819767
9.782014
9.7833742
9.7859368
9.7887862
9.7925117
9.785788
9.7786696
9.7876935
9.7938451
9.6697682
9.5936328
9.5815571
9.6652351
9.5838112
9.5944236
9.5079812
9.3738652
9.3772926
9.3795131
9.3494246
9.3300393
9.5048752
9.5354989
9.5474188
9.6070095
9.6165044
9.6285121
9.5864577
9.5081253
9.5508755
9.3544159
9.3461794
9.3730416
9.3985037
9.373798
9.3511672
9.3519847
9.1709722
9.199028
9.1871081
9.1859877
9.185984
9.1871022
9.1990402
9.1709593
9.1650752
9.18157
9.2080479
9.1810447
9.1584992
9.1561684
9.1782961
9.1901659
9.1862135
9.1845685
9.1836446
9.1937912
9.204575
9.187691
9.1844837
9.2037115
9.1974419
9.1974024
9.2037335
9.184519
9.187483
9.0161656
9.0289635
9.0216574
9.0143077
9.014518
9.0214007
9.0290973
9.2052418
9.3985435
9.3773113
9.3749828
9.3922595
9.3819892
9.3821152
9.3925536
9.3747152
9.3780244
9.3977644
9.3847317
9.3773034
9.3789602
9.1847293
9.1861646
9.1902152
9.178349
9.1561911
9.1585298
9.1810845
9.208087
9.1815295
9.1650458
8.9987862
9.0054522
9.023499
9.0155389
9.013872
9.0138684
9.0155347
9.0235092
9.0054417
8.9988114
9.0101268
9.0338517
9.0090285
8.9907625
8.9946299
9.0151907
9.0174933
9.0144666
9.012311
9.0118976
9.021622
9.0284618
9.0162822
9.0135695
9.0296551
9.0257765
9.0258021
9.0297668
9.0136494
8.8582735
8.8601543
8.8686806
8.8647683
8.8583792
8.8585309
8.8645668
8.8687808
8.8600213
8.8582867
9.0137191
9.1846408
9.2035805
9.1974659
9.1974808
9.2037547
9.1844308
9.1879619
9.2044615
9.1940578
9.1835597
9.011829
9.0124299
9.0144176
9.0175303
9.0152389
8.9946403
8.9907857
9.0090692
9.0338919
9.0100893
8.8547806
8.8470994
8.8533267
8.8641147
8.8593454
8.8577931
8.8577891
8.859342
8.8641221
8.853319
8.8471215
8.8548135
8.8745048
8.852913
8.8383142
8.8449263
8.8628446
8.8603489
8.8581854
8.85621
8.8561512
8.8644953
8.8681734
8.8601779
8.8581463
8.8704222
8.8681374
8.8681948
8.8705853
8.7258236
8.7168402
8.7181152
8.7234053
8.7217949
8.7166949
8.7167999
8.7216399
8.7234727
8.7179922
8.7167999
8.7255303
8.8703086
9.0295325
9.0258063
9.0258765
9.029746
9.0135704
9.0165518
9.0283594
9.0218375
8.8646618
8.8560991
8.8562916
8.8581394
8.8603739
8.8628851
8.8449301
8.8383319
8.8529528
8.8745441
8.7294259
8.7138027
8.7086043
8.7139142
8.7197801
8.7171851
8.7159919
8.7159877
8.7171819
8.7197845
8.7139089
8.7086236
8.7138306
8.7293891
8.7111839
8.6997192
8.7071928
8.7222808
8.7176932
8.7160481
8.7144437
8.7145947
8.7213126
8.7228815
8.7180522
8.7166755
8.7256286
8.7243842
8.7244618
8.5935558
8.5943039
8.587918
8.5886867
8.5917076
8.5915248
8.5877037
8.5877743
8.5914056
8.5917466
8.5885696
8.5878336
8.5940083
8.593477
8.7244014
8.8681637
8.8682557
8.870545
8.8581953
8.8604338
8.8681007
8.7228408
8.7214395
8.7145562
8.7144961
8.7160064
8.7177078
8.7223129
8.707193
8.699733
8.7112217
8.582371
8.5974549
8.5855305
8.582032
8.5862873
8.5889431
8.5877153
8.5869344
8.5869303
8.5877119
8.588945
8.586284
8.5820488
8.5855535
8.5974212
8.5823359
8.5734663
8.580861
8.5933026
8.5880447
8.5866697
8.5854434
8.5856996
8.5908711
8.5911585
8.5885451
8.587723
8.5940897
8.5934665
8.4737927
8.4738877
8.4743042
8.4698413
8.4702112
8.4717144
8.4723567
8.4696554
8.4697015
8.4722637
8.4717299
8.4700966
8.4697232
8.4740141
8.4737985
8.4739103
8.5935878
8.7245063
8.7257726
8.7167643
8.7182919
8.5887691
8.5911467
8.5909687
8.585672
8.5854747
8.5866321
8.5880511
8.5933266
8.5808592
8.5734773
8.4578415
8.4646334
8.4770223
8.4681734
8.4658407
8.4690749
8.4696963
8.4692751
8.4688666
8.4688627
8.4692714
8.4696961
8.4690728
8.4658553
8.468192
8.4769918
8.4646011
8.4578324
8.4647248
8.4748435
8.4696074
8.4683561
8.4674421
8.4677316
8.4715686
8.471135
8.4699991
8.4696205
8.4740789
8.3638261
8.3637026
8.363801
8.3640598
8.360977
8.3610428
8.361568
8.3626405
8.3608537
8.3608827
8.362566
8.3615647
8.3609282
8.3608339
8.363778
8.3637049
8.3638142
8.3639951
8.4742431
8.5942465
8.5878435
8.4697643
8.4702097
8.4711475
8.4716459
8.4677122
8.4674587
8.4683222
8.4696074
8.4748604
8.464722
8.3573892
8.3511741
8.3562868
8.3664206
8.3600268
8.3584912
8.3608134
8.3601833
8.3601978
8.3600852
8.3600815
8.3601937
8.3601815
8.3608121
8.3585037
8.3600415
8.366393
8.3562573
8.3511663
8.3573926
8.3655379
8.3606324
8.3594216
8.358733
8.3590065
8.3617523
8.3609573
8.3607683
8.3607326
8.2596724
8.2618135
8.2617535
8.2618537
8.2620533
8.2599387
8.2597795
8.259701
8.2609503
8.2598756
8.2598927
8.2608887
8.2596826
8.2596634
8.2597777
8.2617814
8.2617534
8.2618582
8.2619849
8.2598443
8.3608931
8.360968
8.3609893
8.361816
8.3589933
8.3587396
8.3593907
8.3606276
8.3655488
8.264109
8.2575991
8.2520883
8.2558729
8.264149
8.2596633
8.2586673
8.2602141
8.2588477
8.259058
8.2591581
8.2591546
8.2590537
8.2588446
8.2602133
8.2586779
8.2596747
8.2641241
8.255846
8.2520815
8.2576029
8.2641032
8.2596457
8.2584277
8.2578825
8.2581081
8.2599919
8.2590607
8.259451
8.1649418
8.1653496
8.1668417
8.1667943
8.1668952
8.1670861
8.165636
8.1653166
8.1648881
8.1661557
8.1656137
8.1656226
8.1661027
8.1648576
8.1651982
8.1654627
8.1668246
8.1667928
8.1668918
8.1670136
8.1655287
8.1651253
8.2596418
8.259108
8.2600469
8.2580997
8.2578823
8.2583992
8.2596372
8.1654809
8.1694788
8.1643266
8.1594993
8.1622426
8.1690006
8.1659682
8.1653306
8.166242
8.164476
8.1647317
8.164969
8.1649657
8.1647271
8.1644721
8.1662414
8.1653395
8.1659767
8.1689781
8.1622182
8.1594934
8.1643308
8.1694772
8.1654923
8.1642414
8.1637722
8.1639315
8.1651518
8.1642217
8.0755039
8.0763882
8.0769255
8.0779862
8.0779295
8.0780304
8.078234
8.0772302
8.0768023
8.0761923
8.0773834
8.0772249
8.0772281
8.077336
8.0761521
8.0766812
8.077049
8.0779832
8.0779275
8.0780199
8.0781571
8.0771085
8.0765657
8.0755721
8.1642809
8.1652013
8.1639266
8.1637675
8.1642147
8.0759662
8.0772728
8.0808165
8.0767705
8.0725781
8.0745119
8.0800342
8.0780892
8.0776835
8.0780904
8.0761427
8.0763539
8.0766663
8.0766632
8.0763492
8.0761382
8.0780899
8.0776908
8.0780955
8.0800138
8.0744897
8.0725729
8.0767751
8.0808184
8.0772866
8.0759917
8.0755483
8.0756327
8.0763538
7.9929098
7.9921823
7.9931232
7.993745
7.9945292
7.9944585
7.9945589
7.9947796
7.9940664
7.9935702
7.9928886
7.9939497
7.9940556
7.9940547
7.9939057
7.9928403
7.9934466
7.9938806
7.9945394
7.9944566
7.9945421
7.9946978
7.9939295
7.9932954
7.9922574
7.9929543
8.0764002
8.0756304
8.0755407
7.992539
7.992976
7.9943272
7.9974541
7.9943022
7.990686
7.991997
7.9965151
7.9953689
7.9951057
7.9951236
7.9931335
7.99325
7.9935897
7.9935867
7.9932452
7.9931286
7.995123
7.9951117
7.9953734
7.9964968
7.9919772
7.9906817
7.9943075
7.9974591
7.994343
7.9930007
7.9925487
7.9925562
7.9141707
7.914259
7.9136727
7.9146023
7.9152744
7.915889
7.9158085
7.9159081
7.9161414
7.9156107
7.9150768
7.9143926
7.9152972
7.9155759
7.9155721
7.9152551
7.9143379
7.9149509
7.9154228
7.9159115
7.9158073
7.9158857
7.9160542
7.9154585
7.9147697
7.9137527
7.9143025
7.9141716
7.9925558
7.9967097
8.000346
7.9968119
7.9977896
7.9997776
7.9985795
7.9992041
7.9997312
8.0005688
8.0006554
7.9990645
7.9203729
7.9170934
7.9168201
7.9148743
7.9148715
7.9152046
7.9152018
7.9148668
7.9148696
7.9168199
7.917099
7.9172792
7.9178313
7.9141281
7.9133049
7.9164164
7.9188516
7.9161076
7.9147192
7.9142374
7.840158
7.8400225
7.839923
7.8394815
7.8403589
7.8410545
7.8415719
7.8414881
7.8415867
7.8418255
7.8414034
7.8408555
7.8402107
7.84095
7.8413337
7.841328
7.8409092
7.8401508
7.840728
7.8412156
7.8416056
7.8414878
7.8415592
7.8417328
7.8412364
7.8405216
7.8395648
7.8399657
7.8400243
7.8401454
7.9142262
7.9146948
7.9160898
7.9188435
7.9164098
7.9133077
7.9141451
7.917847
7.9172754
7.8433557
7.8432133
7.8427304
7.8408806
7.8407509
7.8410556
7.8410534
7.8407472
7.8408772
7.8427319
7.8432202
7.8433609
7.8435117
7.8404729
7.8400052
7.8426626
7.8445261
7.8421109
7.8406809
7.7704809
7.7699126
7.7697148
7.7694854
7.7691834
7.7699857
7.7706855
7.7711529
7.7710729
7.7711702
7.771407
7.7710448
7.7704998
7.7699178
7.7704937
7.7709331
7.7709259
7.7704536
7.7698539
7.7703713
7.7708586
7.7711968
7.7710737
7.7711382
7.7713086
7.7708637
7.7701434
7.7692683
7.7695268
7.7697162
7.7698976
7.7704531
7.8406558
7.8420904
7.844514
7.842653
7.8400046
7.8404853
7.843523
7.773108
7.7732167
7.7730872
7.77246
7.7707351
7.7704812
7.7707448
7.7707433
7.7704801
7.7707356
7.7724667
7.7731003
7.7732287
7.7731064
7.7706095
7.7704058
7.7726659
7.7740742
7.771947
7.7052562
7.7037584
7.7031444
7.702891
7.7025736
7.7024016
7.7031174
7.7038073
7.7042557
7.7041864
7.7042822
7.7045097
7.7041747
7.7036444
7.7031371
7.7035567
7.7040173
7.7040091
7.703517
7.7030701
7.7035157
7.7039915
7.704309
7.7041883
7.7042462
7.7044054
7.7039804
7.7032695
7.7024862
7.7026125
7.7028898
7.7031242
7.7037236
7.7052198
7.7719215
7.774055
7.7726489
7.770397
7.7706121
7.7041657
7.7062181
7.7065069
7.7063726
7.7056528
7.7040674
7.7036976
7.7039145
7.703915
7.7037028
7.7040782
7.7056737
7.7064033
7.7065386
7.7062393
7.7041857
7.7041742
7.7060866
7.7071328
7.6433677
7.6417069
7.6401772
7.6395186
7.6392154
7.6388391
7.6387878
7.6394121
7.6400814
7.6405328
7.6404811
7.6405753
7.6407858
7.6404547
7.6399476
7.63952
7.639791
7.6402493
7.6402404
7.6397516
7.6394509
7.6398195
7.6402753
7.6405943
7.640484
7.6405353
7.6406754
7.6402479
7.6395574
7.6388699
7.6388732
7.6392075
7.6394873
7.6401259
7.6416467
7.6432997
7.7070984
7.7060515
7.7041451
7.6409297
7.6408116
7.6424994
7.6428963
7.642744
7.6419729
7.6405339
7.6400576
7.6402284
7.6402338
7.6400778
7.640569
7.6420283
7.6428183
7.6429763
7.6425729
7.6408831
7.641006
7.6426109
7.5819362
7.5824564
7.5809769
7.5794069
7.5787031
7.5783529
7.5779367
7.5779991
7.5785298
7.5791697
7.5796409
7.5796136
7.5797061
7.5798923
7.5795467
7.5790694
7.5787231
7.5788503
7.5792911
7.5792818
7.5788113
7.5786527
7.5789428
7.5793719
7.5797095
7.5796173
7.5796622
7.579776
7.5793289
7.5786676
7.5780764
7.5779623
7.5783315
7.5786493
7.5793207
7.580866
7.5823171
7.5817681
7.642534
7.645409
7.6461626
7.6465469
7.6471443
7.6468946
7.6451448
7.5843396
7.5818732
7.5810845
7.5797952
7.5792211
7.5793519
7.5793678
7.5792741
7.5798842
7.5812166
7.5820448
7.5822422
7.581791
7.5804005
7.5806097
7.5227145
7.5237762
7.5240909
7.5227535
7.5211203
7.520364
7.5199649
7.519519
7.5196931
7.520129
7.5207327
7.52124
7.5212447
7.5213354
7.5214894
7.5211117
7.520669
7.5204037
7.520386
7.5207988
7.5207892
7.5203474
7.5203327
7.5205444
7.5209421
7.5213153
7.5212495
7.5212884
7.521368
7.5208846
7.520259
7.5197634
7.5195309
7.5199183
7.5202673
7.5209651
7.5225414
7.5238082
7.5234228
7.5223258
7.5804305
7.5802172
7.5816034
7.5820546
7.5236504
7.523427
7.5226483
7.5215117
7.5208446
7.5209465
7.5209839
7.5209648
7.5217106
7.5229378
7.5237987
7.5240587
7.5236062
7.5224626
7.4668463
7.4670968
7.4678867
7.4680007
7.4667539
7.4650128
7.4641839
7.4637259
7.4632538
7.4635451
7.4638845
7.4644478
7.4650122
7.4650585
7.465147
7.4652589
7.4648276
7.4644225
7.4642375
7.4640642
7.4644407
7.464431
7.4640259
7.4641662
7.4643002
7.4646638
7.4650937
7.4650654
7.4650986
7.4651335
7.464593
7.4640071
7.4636058
7.4632442
7.4636362
7.4640103
7.4647303
7.4663535
7.4674492
7.4671837
7.4663129
7.46601
7.5220525
7.523187
7.4669322
7.4673723
7.4670881
7.4663407
7.4653607
7.464599
7.4646872
7.4647651
7.464845
7.4657657
7.4669267
7.4678374
7.4681966
7.4677863
7.4141996
7.4134275
7.4136294
7.4141184
7.4140036
7.4127731
7.4108521
7.4099118
7.409375
7.4088746
7.4092956
7.4095379
7.4100604
7.4107078
7.4108086
7.4108959
7.4109532
7.4104421
7.4100739
7.4099678
7.4096198
7.4099513
7.4099413
7.4095814
7.4098959
7.4099535
7.4102838
7.4107962
7.4108183
7.4108462
7.4108239
7.4102001
7.4096541
7.4093451
7.4088345
7.4092178
7.4096126
7.4103548
7.4120503
7.4129871
7.4128079
7.4121594
7.4118536
7.4125946
7.41298
7.4126099
7.4119076
7.411087
7.410222
7.4103141
7.4104608
7.4106816
7.4118443
7.4130047
7.4140117
7.4145233
7.3631013
7.362908
7.3622743
7.3623801
7.3625228
7.362111
7.360783
7.3585857
7.3574758
7.3568293
7.3562977
7.3568604
7.3570123
7.3575017
7.3582574
7.3584265
7.3585137
7.3585054
7.3578903
7.3575521
7.3575179
7.3569778
7.3572544
7.357244
7.3569383
7.3574441
7.3574325
7.3577358
7.3583544
7.358438
7.3584608
7.35837
7.3576388
7.3571255
7.3569004
7.3562219
7.3565822
7.3569951
7.357765
7.3595601
7.3603586
7.3602459
7.3598178
7.3595284
7.3601121
7.3604182
7.3599383
7.3592827
7.3586147
7.357637
7.3577465
7.3579984
7.3584194
7.3599161
7.3611842
7.3623716
7.3133305
7.3143404
7.3143057
7.3137856
7.3137642
7.3135173
7.3126796
7.3110696
7.3084899
7.3071386
7.3063528
7.3057928
7.3064888
7.3065852
7.3070661
7.3079354
7.3081766
7.3082664
7.3081928
7.3074713
7.3071431
7.3071505
7.3064299
7.3066439
7.3066326
7.306388
7.307073
7.3070217
7.3073177
7.3080446
7.3081907
7.3082081
7.3080473
7.3072055
7.3067032
7.3065291
7.3056904
7.306014
7.3064418
7.3072507
7.3091546
7.3098695
7.3098326
7.3095989
7.3093183
7.3097599
7.3099782
7.3093877
7.3087598
7.3082049
7.3071202
7.3072491
7.307637
7.3083275
7.3102611
7.3118185
7.2656953
7.2677989
7.2691296
7.2692329
7.2688026
7.2686726
7.2680193
7.2665054
7.2642698
7.2612028
7.2595522
7.2586222
7.2580407
7.2588017
7.2589583
7.2594842
7.2604196
7.2607302
7.2608272
7.2606973
7.2599211
7.259557
7.2595024
7.2586882
7.2588509
7.2588383
7.2586423
7.2594188
7.2594308
7.2597631
7.2605459
7.2607492
7.2607629
7.2605374
7.259635
7.2590952
7.2588652
7.2579482
7.2582398
7.2586801
7.2595295
7.261499
7.2623033
7.2624038
7.2622567
7.2619001
7.2622073
7.2623602
7.2617221
7.2610632
7.2604879
7.259354
7.2594933
7.2600187
7.2610317
7.2635067
7.2202972
7.2238961
7.2270822
7.2286954
7.2288237
7.2284663
7.2283419
7.227335
7.2246737
7.2210429
7.2173793
7.2154413
7.21441
7.2137913
7.2143512
7.2149647
7.2156032
7.2164118
7.2169122
7.2170359
7.2167368
7.2160846
7.215623
7.2151301
7.2145199
7.2146974
7.2146827
7.2144683
7.2150382
7.2154905
7.2159173
7.2165594
7.2169382
7.2169655
7.21656
7.2157755
7.2151363
7.2144734
7.2137763
7.2141017
7.2145536
7.2154084
7.2172404
7.2186965
7.2190286
7.2186621
7.2179971
7.2182761
7.2183473
7.2178653
7.2170508
7.2160172
7.2150863
7.215245
7.2158582
7.2171735
7.1769669
7.1806048
7.1876592
7.1930531
7.1943677
7.1942087
7.1939285
7.1941308
7.1933577
7.1884168
7.1813558
7.177203
7.1752447
7.1742088
7.173452
7.1731008
7.175278
7.1760521
7.1762871
7.1774448
7.1775485
7.1766177
7.1765784
7.1759937
7.1739754
7.1742828
7.1746483
7.1746325
7.1742261
7.1738743
7.1758522
7.1764021
7.1764574
7.1774767
7.1774733
7.1764209
7.1762488
7.1754946
7.173317
7.1735811
7.1741187
7.174611
7.1753192
7.1765674
7.1803714
7.1806567
7.1791349
7.1779973
7.1788201
7.1782907
7.1782732
7.1772831
7.1747719
7.1747193
7.1750095
7.1755994
7.1447532
7.1449969
7.1477644
7.1583721
7.1675672
7.1674236
7.1670236
7.1667679
7.1672958
7.1679451
7.1591291
7.1485793
7.1453048
7.1445485
7.1434776
7.1421357
7.1418264
7.1429707
7.1437743
7.1436536
7.14326
7.1433893
7.1440263
7.1443379
7.1437243
7.1427724
7.1430439
7.1440263
7.1440112
7.1429746
7.1426493
7.1435605
7.1441701
7.1438293
7.1433008
7.1433178
7.1438156
7.144022
7.1432376
7.1420989
7.1424053
7.143569
7.1443274
7.1443898
7.1463783
7.1528937
7.154324
7.1489326
7.1460828
7.1451974
7.1457775
7.1460229
7.1449536
7.1435175
7.1433187
7.1442468
7.1192176
7.1195302
7.1203133
7.1223853
7.1204954
7.1207479
7.1211399
7.1209054
7.1210474
7.121037
7.1232782
7.1206787
7.1194352
7.1184695
7.1177765
7.1189752
7.1177975
7.118447
7.1200633
7.1194935
7.1196335
7.1204471
7.1190087
7.1185882
7.1199544
7.1187886
7.119167
7.1191466
7.1187102
7.11984
7.1184146
7.1188187
7.1202466
7.1195319
7.1195578
7.1202289
7.1186736
7.1181201
7.1193107
7.1181962
7.1188358
7.1197081
7.1206341
7.1230781
7.1188278
7.118404
7.1234381
7.1232527
7.1219122
7.1223529
7.1207992
7.119781
7.1206655
7.118919
7.1159736
7.1150168
7.1229812
7.1318309
7.1372725
7.1396305
7.1357996
7.135886
7.138869
7.1373179
7.1326309
7.123152
7.1148791
7.1158054
7.1230346
7.1323017
7.1410296
7.144465
7.1312495
7.1022923
7.1014624
7.1308149
7.1442803
7.1403986
7.132064
7.1248658
7.1178563
7.1153431
7.1291497
7.1306164
7.1435135
7.144151
7.1582047
7.142894
7.1419321
7.1486409
7.1425026
7.1571931
7.1422524
7.1287054
7.1288231
7.1415368
7.1414576
7.1470858
7.1233106
7.12604
7.1312456
7.1311244
7.131414
7.1287637
7.1268215
7.1251228
7.1176315
7.1158418
7.1292283
7.129672
7.142377
7.1572731
7.1418721
7.1426558
7.1429257
7.1484119
7.1520392
7.1499257
7.1634775
7.1535098
7.1539574
7.149638
7.1435452
7.1371431
7.1365046
7.1435745
7.1498461
7.1478026
7.1639205
7.1505642
7.1473675
7.1373005
7.1205828
7.1251186
7.125056
7.123965
7.1170869
7.116713
7.1301505
7.1432363
7.1445304
7.160575
7.1441639
7.1305032
7.143717
7.1486821
7.1822596
7.1823661
7.1857951
7.1794355
7.1783884
7.1819992
7.179643
7.2202601
7.2648893
7.2707488
7.2639853
7.2190663
7.2249471
7.2352499
7.2222641
7.2678125
7.2738269
7.2661197
7.2217558
7.2236001
7.2684043
7.2691246
7.2242625
7.1835992
7.1491874
7.1564457
7.1551334
7.1514486
7.1634726
7.1548881
7.1902907
7.2016901
7.2068734
7.190442
7.1929407
7.20436
7.1637668
7.1670087
7.1549277
7.1712144
7.1660995
7.1557011
7.1498197
7.1835381
7.1915282
7.2032865
7.1917892
7.1916776
7.1617417
7.1435365
7.1422955
7.1421841
7.1419382
7.1424035
7.1440655
7.1622401
7.1626723
7.1624701
7.1626111
7.1626261
7.1941039
7.1945371
7.1981083
7.1969863
7.1571829
7.1292566
7.1378397
7.1310369
7.0622315
6.9908938
6.9789759
6.9793863
6.9916948
7.0631812
7.0806679
7.126111
7.133825
7.1345557
7.1272458
7.0829469
7.0660687
6.9939523
6.9822235
6.9822761
6.9940199
7.0661744
7.0832421
7.1279351
7.1354367
7.1354439
7.1460287
7.1389385
7.1268057
7.1160307
7.1162046
7.1234798
7.1248612
7.1248657
7.1234187
7.1160485
7.1158308
7.1265488
7.138689
7.1457099
7.1344058
7.1338299
7.1259084
7.0794657
7.0611426
6.9859047
6.9729362
6.9718198
6.9845028
7.0601102
7.0784759
7.1251116
7.1330027
7.1326423
7.1247579
7.079714
7.0342572
6.9959913
6.894312
6.6981055
6.4702286
6.3287042
6.330313
6.4742031
6.7027319
6.8973214
6.9978358
7.0363406
7.083247
7.134167
7.1427345
7.1330386
7.1340646
7.1403831
7.1067566
6.9958106
7.0665478
7.0075045
6.9386616
6.7071631
6.5264685
6.3831975
6.1902489
6.0600612
5.9292767
5.877048
5.8762323
5.9272731
6.0567691
6.1852823
6.377242
6.5212247
6.7008171
6.3785287
6.2120194
5.9916169
5.843583
5.6871298
5.6256453
5.6264561
5.6893211
5.8472676
5.9968736
6.2187938
6.3845474
6.1951163
6.4850697
6.7875988
6.8858036
6.8664843
6.984481
6.9847044
7.1068504
7.1403994
7.1340744
7.1331186
7.1428085
7.1343093
7.0670502
6.9963056
6.8865273
6.8666166
6.7476787
6.7473853
6.3476557
5.9403601
6.0680314
5.8545936
6.0008631
5.7946806
5.5998548
5.4294156
5.3412895
5.3406166
5.4268839
5.5955185
5.7890778
5.993188
6.1881799
6.4768769
6.0602262
5.8458122
5.5967159
5.3415146
5.1341748
5.0215588
5.0221999
5.1366327
5.3462889
5.6034807
5.4357092
5.6996096
5.638297
5.8890848
5.8886557
6.3478098
5.939381
5.6987545
5.6377358
5.3485286
5.3492989
5.0265953
5.1395364
4.896342
4.7607882
4.7600683
4.893873
5.1347193
5.4285813
5.6900288
5.9315864
6.3371365
5.8803521
5.628277
5.3416918
5.0213053
4.759455
4.6133992
4.6141411
4.7621607
4.7611946
5.0258126
5.1376433
5.4340565
5.6017575
5.8535844
6.0673183
6.4861137
6.7885585
6.9398135
7.0081104
7.0371801
7.0838193
7.1280395
7.115227
7.0911262
6.9990136
6.8995886
6.7098118
6.3868621
6.1952185
6.0009136
5.7939641
5.5988197
5.3438108
5.1340929
4.8936467
4.7580605
4.6129941
4.6121653
4.7583872
5.0206771
5.3411659
5.6282843
5.880394
6.3379618
5.9315921
5.689798
5.4272769
5.1327128
4.8912585
4.7572256
5.0190487
5.0195631
5.3401691
5.4278595
5.6909736
5.8489594
5.9984038
6.2212111
6.3857302
6.5282821
6.7082933
6.4815733
6.1917896
6.06204
5.9313944
5.8795404
5.6284286
5.6281486
5.3395374
5.4264579
5.1319251
5.3400476
5.5957925
5.8459076
6.0607354
6.4789322
6.1898972
5.9945772
5.7893499
5.5955519
5.8464704
5.6895907
5.9304728
5.8791066
6.3400954
6.3405195
6.7427084
6.7841972
6.9382864
6.998126
7.0361986
7.1150795
7.1273784
7.133172
7.1239811
7.0265622
7.004144
6.8529841
6.8381075
6.8380744
6.8526417
7.0039367
7.0264132
7.122306
7.1269446
7.1134801
7.1258805
7.1131623
7.0333885
7.0028327
6.8765287
6.8551863
6.8534898
6.8741167
7.0010399
7.0314913
7.1117138
7.1244844
7.1117477
7.0868213
6.9928128
6.9303465
6.7736388
6.7306655
6.7326263
6.7765928
6.9330646
6.9952034
7.0887649
7.1037989
7.122268
7.0237658
7.0005388
6.8452954
6.8296691
6.8277006
6.8428369
6.998774
7.0220427
7.1207228
7.1304985
7.1488922
7.1208648
7.10202
7.0024392
7.0260007
6.9530292
6.7848959
6.8322133
6.7523626
6.3580738
6.4952995
6.7159675
6.9117424
7.0057632
7.0253326
7.0296299
7.0026073
7.0047653
6.9352982
6.7847685
6.8837369
6.86391
6.743309
6.7442465
6.8644639
6.8848474
6.786338
6.9374908
6.704964
6.5248306
6.3815
6.188717
6.0602181
6.4797537
6.705773
6.8981012
6.9979354
7.0355501
7.0060661
7.0035518
6.8541145
6.8391532
6.8386232
6.8533004
6.8436319
6.79599
6.9576469
6.7190831
6.5105073
6.4220264
6.3641436
6.3308094
6.3852367
6.2175313
6.3865077
6.3312389
6.2343546
5.9552997
6.0476883
6.1613831
6.0554305
5.9609955
5.9504414
5.854033
5.8440377
5.9760873
5.7814698
5.9777828
6.1646439
6.5025773
6.0496961
5.9528093
5.9566769
5.8561308
5.9629437
6.0589035
5.8462578
5.6752727
5.9091028
6.3673101
6.7645993
6.7654877
6.8441502
6.7970665
6.9591828
7.0301487
7.0259523
7.0066885
6.9138874
6.7215997
6.5035281
6.3678606
5.8669343
5.8668848
5.7367061
5.7708909
5.6766204
5.6563793
5.6146123
5.6203159
5.3324519
5.4192469
5.5900717
5.5869928
5.7787944
5.5860281
5.5887614
5.3259033
5.3096611
5.0915855
5.4123521
5.653918
5.7679816
5.9043544
5.8624738
5.7338295
5.6732872
5.6119255
5.6175858
5.6722645
5.4174391
5.331347
5.3254482
4.974778
4.9993245
5.1138658
4.867783
5.1144677
5.0918196
5.4138286
5.3264406
4.9743121
4.9990109
4.730415
4.6958504
4.8367257
4.6968151
4.7310111
4.5809187
4.5422872
4.5002832
4.6594624
4.9471785
5.3225423
5.4102429
5.5871624
5.7837111
5.7713771
5.5643816
5.2710472
5.5659063
5.5881634
5.2913818
5.0667943
5.0405669
5.3895002
5.2953053
4.917465
4.8920649
5.3079868
5.6536408
6.4289822
6.5668729
6.7715767
6.9559016
6.9376863
6.7613281
6.5561148
6.428904
6.4307616
6.8345492
6.7544249
6.7874933
6.9553576
7.027667
7.0041877
6.9136481
6.7197297
6.498801
6.3595586
5.86339
5.7345862
5.6743026
5.7689757
5.9061611
5.6742371
5.6184069
5.6127026
5.6550452
5.8571837
5.963668
6.0584012
6.1656295
6.050808
5.9532805
5.9581122
5.9803942
5.8472529
5.5927132
5.4198532
5.3319178
5.3259453
5.4142195
5.0933739
4.9750888
4.9998616
5.1160624
5.3301618
5.3133466
5.5890406
5.7825855
5.785964
5.5958462
5.5917046
5.4187017
5.095543
4.8388654
4.6972899
4.7316736
4.8699615
4.7328697
4.5815695
4.5427825
4.6978555
4.9780981
5.0035983
5.1186302
5.4250265
5.3387928
5.3314998
5.6226864
5.6643044
5.8631482
5.9631121
6.2398039
6.3359169
6.3905168
6.5153635
6.722093
6.426325
6.3685504
6.335777
6.3921153
6.223377
5.9845357
6.1712146
6.505707
6.055305
5.9586444
5.9688774
6.0662092
5.8538708
5.6836211
5.9173585
6.3711397
5.7778177
5.6836949
5.743133
5.8749982
5.6289569
5.6283591
5.3377489
5.0028296
4.7317617
4.5803469
4.5795349
4.7292128
4.9983704
5.3317952
5.6203387
5.6145511
5.7362743
5.6760153
5.7699922
5.9087987
5.6748271
5.6556909
5.8551886
5.9621812
6.059005
5.8457091
5.9779726
6.1652604
6.0485742
5.9511939
5.9553185
5.7766938
5.5848248
5.4120587
5.3256391
4.9731739
5.0890807
5.1120396
5.4175632
5.5884196
5.3236893
5.3064599
5.5830755
5.5874714
5.7804117
5.9779706
5.9944229
6.215869
6.3823454
6.3896521
6.3332568
6.3653936
6.2360203
6.2201794
6.3890479
6.7200126
6.5134716
6.4229947
6.3320298
6.0474309
5.9554045
5.9500229
5.8541263
5.8455152
6.0583822
6.4997907
6.1642244
5.9601148
5.7665285
5.6531863
5.4087729
5.0871781
4.8334043
4.6944318
4.5406562
4.6928327
4.7277358
4.8647176
5.1107365
4.9958573
4.9696392
5.3210896
5.3285676
5.4155132
5.6731574
5.6185403
5.6113494
5.6716572
5.7317042
6.3631729
5.9069645
5.8647563
5.8651554
5.6187919
5.3291484
4.9963282
4.7285014
4.6932092
4.5413613
4.6966413
4.8350414
4.8668185
5.1163963
5.09244
4.9768144
5.3301854
5.4163161
5.4231105
5.5932867
5.3267903
5.1126685
5.0884957
4.9699894
5.3212309
5.4095042
5.4166599
5.5902354
5.5849633
5.3087686
5.5881585
5.7792151
5.7839717
5.9832506
5.8522063
5.6824592
5.6624919
5.6213329
5.6818556
5.7419207
6.3709906
5.8743712
5.9160117
5.7757184
5.96669
5.8603664
5.9553715
5.9598225
6.0522243
6.5056694
6.064915
6.1700514
6.3935189
6.2246455
5.9805048
5.8475894
5.6742852
5.6537236
5.6115344
5.6718798
5.7319039
6.3634367
5.9076953
5.7665589
5.9616883
5.8557973
5.9511511
5.9567146
6.0484617
6.5009726
6.0597922
6.166459
6.3925691
6.7215644
6.3353945
6.2397818
6.367971
6.3358865
6.7231855
6.5165232
6.4256206
6.9143464
6.9396557
6.7669329
6.5644368
6.4398975
6.4402089
6.5651495
6.7668078
6.9392855
6.7644273
6.5591922
6.5694804
6.4303322
5.6546695
5.9510705
5.9567765
6.6082449
6.8633032
7.1642594
7.2037987
7.1909612
7.1825017
7.1492117
7.1553497
7.153337
7.1886238
7.1844005
7.1836746
7.1851803
7.1799772
7.1901993
7.2010438
7.2057891
7.1660208
7.1634033
7.1199385
7.1191624
7.1636895
7.2011002
7.2160707
7.2065975
7.2162604
7.1710039
7.1436854
7.1367927
7.1279428
7.155436
7.1640025
7.1667146
7.2082918
7.205853
7.1636441
7.1344284
7.1047736
7.1049009
7.1344248
7.1290125
7.1291018
7.1573321
7.1572557
7.1980229
7.1943918
7.1940808
7.1970072
7.1572698
7.1294512
7.1378988
7.1312173
7.1439096
7.137023
7.1283701
7.1253705
7.1323007
7.140648
7.145371
7.1337039
7.1057725
7.105857
7.1339947
7.1459893
7.1416238
7.1327202
7.123527
7.1163313
7.115214
7.1232846
7.1327487
7.1389709
7.1427714
7.1401681
7.1400699
7.1424527
7.1383864
7.131913
7.1227907
7.1154499
7.1181316
7.1306468
7.1291639
7.1419235
7.1428758
7.1441435
7.1581362
7.1435713
7.1795753
7.183922
7.1921484
7.192146
7.2288464
7.2311371
7.2318499
7.2320207
7.2312103
7.2284003
7.2705214
7.3165357
7.3655367
7.3725804
7.3663261
7.3621986
7.3123446
7.3186485
7.3117094
7.3617872
7.3685088
7.3813332
7.3655221
7.3156163
7.3217274
7.3137158
7.3637974
7.3660313
7.3160486
7.3167643
7.3666694
7.381749
7.3790229
7.371547
7.3962467
7.3453596
7.3312773
7.2826273
7.2955946
7.2469926
7.2281563
7.2342332
7.2807252
7.2829883
7.2361516
7.2523128
7.2538263
7.3040787
7.3039288
7.3568888
7.3316067
7.3290538
7.3555206
7.4079463
7.4108084
7.407888
7.4315077
7.4288086
7.4055173
7.3816342
7.3317703
7.3168989
7.2697553
7.2251522
7.2363813
7.2833983
7.2968421
7.2765224
7.2322964
7.2487467
7.255751