/*--------------------------------*- C++ -*----------------------------------*\
  =========                 |
  \\      /  F ield         | OpenFOAM: The Open Source CFD Toolbox
   \\    /   O peration     | Website:  https://openfoam.org
    \\  /    A nd           | Version:  7
     \\/     M anipulation  |
\*---------------------------------------------------------------------------*/
FoamFile
{
    version     2.0;
    format      ascii;
    class       volScalarField;
    location    "460";
    object      nut;
}
// * * * * * * * * * * * * * * * * * * * * * * * * * * * * * * * * * * * * * //

dimensions      [0 2 -1 0 0 0 0];

internalField   nonuniform List<scalar> 
24866
(
7.9871354
7.993963
7.9907857
8.1778771
8.34244
8.3402624
8.336201
8.3404646
8.3397338
8.3348703
8.3351306
8.3351673
8.3348938
8.3397677
8.3405475
8.3361861
8.3400876
8.3413815
8.3405199
8.335994
8.3259471
8.340359
8.3708344
8.3582262
8.3324997
8.3285498
8.3363989
8.3604137
8.3556675
8.3291457
8.3383246
8.3413921
8.3413931
8.3383329
8.3291933
8.355715
8.3605212
8.3364912
8.3284418
8.3323263
8.358159
8.3707893
8.3403493
8.3259496
8.3360188
8.3405698
8.3414015
8.3401627
8.3361954
8.3404709
8.3398509
8.3349902
8.335128
8.3351426
8.3349533
8.3397322
8.3403457
8.3360847
8.3402264
8.3424874
8.3463461
8.3431123
8.3463375
8.3430537
8.3368247
8.339565
8.3453971
8.3420151
8.334427
8.3344147
8.3344391
8.3344307
8.3420667
8.3454462
8.3395725
8.3366941
8.3425454
8.3453011
8.3417844
8.342912
8.3376679
8.3299889
8.3283386
8.33909
8.3427738
8.3480367
8.3326385
8.328703
8.3364108
8.3485094
8.3426931
8.3379986
8.3369822
8.3377791
8.3361347
8.3335112
8.3360501
8.3350034
8.3385973
8.3361764
8.3339798
8.3336445
8.3336961
8.3343288
8.3350399
8.3350421
8.3348628
8.3377238
8.336793
8.3364936
8.3331122
8.3401472
8.3441446
8.3419295
8.3378152
8.3354802
8.3346241
8.3341175
8.3344671
8.3347831
8.3347132
8.3341972
8.3345921
8.3338336
8.3333659
8.3340015
8.3360048
8.3335509
8.332843
8.3330735
8.3339658
8.3348381
8.3353571
8.3351047
8.3351934
8.3348855
8.3344705
8.3348677
8.3346264
8.3367968
8.3378182
8.3331203
8.3401505
8.3441464
8.2387928
8.2354673
8.1650566
8.1703746
8.1771267
8.1771236
8.1703663
8.1680425
8.1366846
8.2614392
8.2641287
8.1430927
8.1679657
8.1698922
8.1639898
8.1380044
8.0966436
8.1118257
8.157695
8.1688359
8.1759798
8.1755516
8.174724
8.172708
8.1718563
8.1691773
8.1670743
8.1591506
8.159111
8.1670622
8.169082
8.1715923
8.1731114
8.1744522
8.1675744
8.1752216
8.2404414
8.238721
8.1677431
8.103295
8.1763665
8.1780563
8.1699247
8.3391132
8.3357885
8.3391203
8.336225
8.3339466
8.3359588
8.3335279
8.3328141
8.3330321
8.333902
8.334748
8.3352506
8.3353618
8.3354649
8.3351981
8.334791
8.335051
8.33699
8.3377288
8.3427039
8.336504
8.1702161
8.1797998
8.2019914
8.2614965
8.1366383
8.1680223
8.0008545
7.988646
7.9903556
7.9903519
7.9886381
8.000864
7.9665347
7.9658603
7.9851511
8.0061589
7.9844736
7.9615815
7.9478301
7.9643313
7.9899558
7.9881484
7.9893654
7.9881994
7.994196
8.005631
7.9885321
7.9860219
8.0009507
7.9921027
7.9921616
8.0010426
7.9859978
7.9882799
8.0060849
7.8414165
7.8316426
7.8254412
7.8256753
7.8313786
7.9936715
8.1741974
8.1732223
8.1714279
8.1691631
8.1670555
8.1591278
8.1591318
8.1671939
8.168937
8.1719934
8.1727216
8.1749448
8.1754873
8.1761251
8.1688123
8.1577347
8.1118734
8.2303159
8.2760796
8.2633094
8.1381029
8.1641246
8.1699918
8.1678302
8.1428758
8.2641617
8.2086385
8.1431593
8.1401221
8.1017471
8.1681591
8.1637738
8.19572
8.2344889
8.3485552
8.3364455
8.3286825
8.3380038
8.3427634
8.337788
8.3350531
8.3347259
8.3351142
8.3346056
8.3348465
8.3347517
8.3343156
8.333669
8.3332815
8.3340404
8.333503
8.3336716
8.3339088
8.3339768
8.3338497
8.3336654
8.3342145
8.3343471
8.3361493
8.3390853
8.3283483
8.3335361
8.3337204
8.335032
8.3340041
8.3333832
8.3330863
8.3330418
8.3332864
8.3340402
8.3362193
8.3339545
8.3328266
8.3328582
8.3340185
8.3362044
8.3386353
8.3418123
8.3360815
8.3300213
8.3377099
8.3429501
8.2372554
8.1723979
8.1621116
8.2333943
8.16403
8.1730706
8.0994355
7.9851883
7.9881125
7.9900028
7.9643728
7.9478595
8.0967939
8.1228754
8.1330299
8.1837903
8.1918783
8.2021103
8.1662844
8.0995572
8.1359747
7.9686187
7.9616075
7.9844898
8.0061797
7.9851342
7.9658566
7.966553
7.812359
7.8362576
7.8261056
7.8251503
7.8251471
7.8261007
7.8362682
7.8123482
7.8073365
7.8213867
7.843942
7.8209392
7.801734
7.7997497
7.8185986
7.8287091
7.8253443
7.823942
7.823155
7.8317994
7.8409836
7.8266017
7.8238702
7.8402485
7.8349075
7.8348738
7.8402673
7.8239004
7.8264246
7.6804905
7.6913914
7.6851705
7.6789083
7.6790874
7.6849518
7.6915052
7.8415515
8.0062138
7.988128
7.9861447
8.0008612
7.9921124
7.9922197
8.0011116
7.9859165
7.9887352
8.0055498
7.9944494
7.9881208
7.9895321
7.8240786
7.8253022
7.8287507
7.8186433
7.7997687
7.8017597
7.8209728
7.843975
7.821352
7.8073113
7.6656858
7.6713633
7.6867355
7.6799575
7.6785362
7.6785332
7.679954
7.6867443
7.6713545
7.6657075
7.6753451
7.6955551
7.6744094
7.6588498
7.6621459
7.6796598
7.6816201
7.6790449
7.6772072
7.6768551
7.6851402
7.6909638
7.6805897
7.6782799
7.691981
7.6886767
7.6886984
7.6920762
7.6783481
7.5459956
7.5475965
7.554858
7.5515293
7.5460849
7.5462141
7.5513575
7.5549433
7.547483
7.5460067
7.6784073
7.8240039
7.8401367
7.8349277
7.8349403
7.840285
7.8238248
7.8268321
7.8408865
7.8320261
7.8230822
7.6767962
7.677308
7.6790027
7.6816512
7.6797004
7.6621543
7.6588691
7.6744437
7.6955891
7.6753129
7.5430168
7.5364756
7.5417791
7.5509674
7.5469086
7.5455845
7.5455811
7.5469058
7.5509739
7.5417727
7.5364947
7.5430451
7.559819
7.5414259
7.5289903
7.5346252
7.5498877
7.5477603
7.5459213
7.5442367
7.5441867
7.5512965
7.5544258
7.5476164
7.5458871
7.5563422
7.5543956
7.5544445
7.5564813
7.433172
7.4255224
7.4266067
7.4311111
7.4297445
7.4253975
7.425487
7.4296124
7.4311684
7.4265018
7.4254879
7.4329219
7.5562453
7.6918764
7.6887018
7.6887615
7.6920581
7.6782803
7.680819
7.6908762
7.6853234
7.5514378
7.5441418
7.5443057
7.5458817
7.5477811
7.5499217
7.5346279
7.5290049
7.5414594
7.5598521
7.4362387
7.4229305
7.4185051
7.4230266
7.4280215
7.4258162
7.4247974
7.4247938
7.4258136
7.4280254
7.4230224
7.4185219
7.4229547
7.4362078
7.4206996
7.410934
7.4173035
7.4301546
7.4262446
7.4248486
7.4234795
7.4236082
7.4293333
7.4306646
7.4265529
7.4253819
7.4330058
7.4319452
7.4320113
7.3205075
7.3211457
7.3157096
7.3163621
7.3189328
7.3187839
7.3155256
7.3155857
7.3186823
7.3189658
7.3162622
7.3156375
7.3208935
7.32044
7.4319596
7.5544176
7.554496
7.5564465
7.5459285
7.547834
7.5543634
7.4306294
7.4294409
7.4235748
7.4235236
7.4248125
7.4262566
7.4301814
7.4173031
7.4109453
7.4207313
7.3109781
7.3238274
7.3136702
7.3106939
7.3143165
7.3165761
7.3155371
7.3148687
7.3148653
7.3155343
7.3165779
7.3143139
7.3107086
7.3136902
7.3237992
7.3109487
7.3033939
7.3096971
7.3202934
7.3158118
7.3146474
7.3135997
7.3138181
7.3182266
7.3184647
7.3162412
7.3155433
7.320963
7.3204314
7.2184985
7.2185794
7.2189354
7.2151386
7.2154507
7.2167276
7.2172834
7.2149782
7.2150175
7.2172041
7.2167407
7.2153529
7.2150377
7.2186879
7.2185031
7.2185981
7.3205343
7.4320488
7.4331281
7.4254572
7.4267565
7.3164315
7.3184541
7.3183092
7.3137938
7.3136257
7.3146147
7.3158166
7.3203132
7.3096951
7.3034028
7.2049097
7.2106943
7.2212479
7.2137109
7.2117287
7.2144807
7.2150066
7.2146565
7.2143044
7.2143012
7.2146534
7.2150067
7.2144793
7.2117415
7.2137272
7.2212224
7.2106674
7.2049026
7.210779
7.2193959
7.214932
7.2138749
7.2130922
7.2133389
7.2166116
7.2162337
7.2152697
7.2149503
7.2187433
7.1248387
7.1247323
7.1248162
7.125038
7.1224179
7.1224701
7.1229132
7.1238371
7.1223101
7.1223347
7.1237736
7.1229103
7.1223723
7.1222957
7.1247976
7.1247339
7.1248269
7.1249821
7.2188826
7.3210961
7.3156455
7.2150723
7.2154484
7.2162437
7.2166768
7.2133217
7.2131056
7.2138452
7.2149313
7.2194095
7.2107759
7.1193596
7.1140591
7.1184131
7.1270457
7.1216003
7.1202982
7.1222725
7.1217315
7.1217541
7.1216533
7.1216502
7.1217508
7.1217302
7.1222718
7.1203093
7.1216133
7.1270228
7.1183887
7.1140532
7.1193633
7.1262983
7.1221153
7.1210942
7.1205028
7.1207359
7.12308
7.1223926
7.122236
7.1222094
7.0361379
7.0379554
7.037903
7.0379885
7.0381599
7.0363651
7.0362251
7.0361533
7.0372286
7.0363075
7.036322
7.037176
7.0361375
7.0361259
7.0362276
7.0379279
7.0379025
7.0379916
7.0381008
7.0362836
7.1223455
7.1224053
7.1224191
7.1231335
7.1207238
7.1205076
7.121067
7.1221104
7.1263068
7.039911
7.0343698
7.0296687
7.0328913
7.0399414
7.0361215
7.0352795
7.0365927
7.0354239
7.0356142
7.035694
7.035691
7.0356107
7.0354216
7.0365925
7.0352891
7.0361318
7.0399209
7.0328692
7.0296638
7.034374
7.039907
7.0361052
7.0350788
7.0346088
7.0348012
7.0364116
7.0356074
7.0359448
6.9554514
6.9558036
6.9570686
6.9570271
6.9571132
6.957277
6.9560479
6.9557712
6.9554013
6.9564916
6.9560242
6.9560317
6.9564463
6.9553752
6.95567
6.9558999
6.9570538
6.9570254
6.9571095
6.9572143
6.9559553
6.9556068
7.0361064
7.0356468
7.0364575
7.034793
7.0346077
7.0350535
7.036097
6.955904
6.9593144
6.95493
6.9508115
6.9531472
6.9589041
6.9563219
6.955785
6.9565567
6.9550475
6.9552758
6.9554724
6.9554696
6.9552721
6.9550445
6.9565567
6.9557932
6.95633
6.9588858
6.9531274
6.9508075
6.9549346
6.9593141
6.9559148
6.9548599
6.9544546
6.9545904
6.9556357
6.954833
6.8792676
6.880025
6.8804871
6.8813864
6.8813379
6.8814239
6.8815977
6.880747
6.8803782
6.8798547
6.8808773
6.8807372
6.8807398
6.8808368
6.8798202
6.8802747
6.8805922
6.8813835
6.8813356
6.8814141
6.8815311
6.8806419
6.8801751
6.8793246
6.9548825
6.9556768
6.9545851
6.9544495
6.9548359
6.8796677
6.8807726
6.8837951
6.8803526
6.8767767
6.8784238
6.883128
6.8814713
6.8811302
6.8814725
6.8798094
6.8799975
6.8802585
6.8802559
6.8799937
6.879806
6.8814725
6.8811371
6.8814776
6.8831116
6.878406
6.8767735
6.8803579
6.8837981
6.8807857
6.8796907
6.879308
6.87938
6.8799995
6.8089115
6.8082874
6.8090914
6.8096244
6.8102901
6.8102305
6.8103161
6.8105036
6.8098985
6.8094728
6.8088897
6.8097981
6.8098845
6.8098837
6.8097604
6.8088483
6.809367
6.8097398
6.8102984
6.8102282
6.8103008
6.8104327
6.8097804
6.8092369
6.80835
6.8089481
6.8800377
6.8793768
6.8793002
6.8085903
6.8089661
6.8101124
6.8127785
6.8100965
6.8070133
6.8081306
6.8119793
6.8110024
6.8107808
6.8107929
6.8090951
6.8091991
6.8094848
6.8094824
6.8091953
6.8090914
6.810793
6.8107867
6.8110073
6.8119649
6.808115
6.8070111
6.8101025
6.8127842
6.8101274
6.8089887
6.8086
6.8086065
6.7418149
6.7418921
6.7413913
6.7421842
6.742758
6.7432811
6.7432132
6.7432982
6.7434963
6.7430448
6.7425888
6.7420052
6.742777
6.7430126
6.7430093
6.742741
6.7419583
6.7424812
6.7428843
6.7432998
6.7432115
6.743278
6.7434207
6.7429135
6.7423255
6.7414581
6.7419276
6.7418142
6.8086048
6.8121361
6.8152412
6.812223
6.8130569
6.8147597
6.8137283
6.8142655
6.8147158
6.8154293
6.8155015
6.814141
6.7470972
6.7443049
6.7440709
6.7424124
6.7424116
6.7426935
6.7426913
6.742408
6.7424088
6.7440714
6.7443104
6.7444634
6.7449345
6.7417801
6.7410784
6.7437298
6.7458032
6.7434649
6.7422838
6.7418715
6.6787375
6.6786223
6.6785378
6.6781632
6.6789103
6.6795025
6.6799442
6.6798735
6.6799575
6.6801603
6.6798
6.6793336
6.6787849
6.679413
6.6797396
6.6797347
6.6793781
6.6787335
6.6792245
6.6796394
6.6799723
6.6798725
6.679933
6.68008
6.6796562
6.6790476
6.6782326
6.6785728
6.6786224
6.6787252
6.7418604
6.7422614
6.7434482
6.7457947
6.7437227
6.7410793
6.7417932
6.7449466
6.7444592
6.6814611
6.6813392
6.6809282
6.6793528
6.6792413
6.6795005
6.6794987
6.6792384
6.6793503
6.6809301
6.6813458
6.6814665
6.6815957
6.6790073
6.6786084
6.6808716
6.6824593
6.6804026
6.6791832
6.619347
6.6188639
6.6186956
6.618499
6.6182453
6.6189275
6.6195218
6.6199223
6.619855
6.6199379
6.6201388
6.619828
6.6193653
6.6188712
6.6193578
6.6197333
6.6197272
6.6193235
6.6188164
6.6192554
6.6196688
6.6199591
6.6198549
6.6199096
6.6200538
6.6196724
6.6190607
6.6183162
6.618533
6.6186956
6.6188498
6.6193221
6.6791604
6.6803835
6.6824475
6.680862
6.6786064
6.6790164
6.6816041
6.6215865
6.6216785
6.6215663
6.6210336
6.6195655
6.6193463
6.6195717
6.6195706
6.6193454
6.6195662
6.6210399
6.621578
6.6216895
6.6215861
6.6194593
6.6192852
6.6212085
6.6224097
6.6205993
6.5637515
6.5624707
6.5619496
6.561734
6.5614612
6.5613198
6.5619277
6.5625123
6.5628978
6.5628396
6.5629213
6.563114
6.5628251
6.5623762
6.5619462
6.5622981
6.5626928
6.5626858
6.5622642
6.5618888
6.5622661
6.5626685
6.5629423
6.5628406
6.5628896
6.5630243
6.5626588
6.5620564
6.5613907
6.5614935
6.5617322
6.5619315
6.5624404
6.5637196
6.6205761
6.622392
6.6211929
6.6192764
6.6194603
6.562821
6.5645695
6.5648147
6.5646974
6.5640869
6.5627382
6.5624188
6.5626054
6.562606
6.5624232
6.5627475
6.5641051
6.5647237
6.5648422
6.564588
6.5628388
6.5628281
6.5644541
6.5653479
6.5109904
6.5095781
6.5082695
6.507711
6.5074529
6.5071292
6.5070911
6.5076208
6.5081869
6.5085751
6.5085316
6.5086119
6.5087903
6.5085044
6.508076
6.5077142
6.507939
6.5083324
6.5083248
6.5079053
6.5076551
6.5079666
6.5083513
6.5086266
6.5085336
6.5085772
6.5086962
6.5083283
6.5077445
6.5071606
6.5071583
6.5074463
6.5076842
6.5082261
6.5095267
6.5109327
6.5653178
6.5644237
6.5628026
6.508914
6.5088141
6.510252
6.5105896
6.5104568
6.5098033
6.5085794
6.5081689
6.5083167
6.5083215
6.5081858
6.5086091
6.5098505
6.5105196
6.5106576
6.5103144
6.508875
6.5089788
6.5103426
6.4586202
6.4590666
6.4578084
6.4564657
6.4558687
6.4555707
6.4552127
6.455271
6.4557211
6.4562617
6.4566665
6.4566433
6.456722
6.45688
6.4565821
6.4561794
6.4558866
6.4559893
6.456368
6.45636
6.455956
6.4558266
6.4560714
6.4564333
6.4567242
6.4566464
6.4566847
6.4567819
6.4563977
6.4558393
6.4553372
6.4552355
6.4555535
6.4558238
6.4563937
6.4577149
6.4589492
6.4584785
6.5102775
6.5127438
6.5133876
6.5137171
6.5142261
6.5140113
6.5125189
6.4606848
6.4585685
6.4579003
6.4568036
6.4563101
6.4564239
6.4564376
6.4563549
6.4568789
6.4580124
6.4587136
6.4588848
6.4585003
6.4573158
6.4574933
6.4081448
6.4090462
6.4093173
6.4081798
6.4067837
6.4061417
6.4058019
6.4054189
6.4055717
6.4059414
6.4064511
6.4068864
6.4068902
6.4069674
6.4070981
6.406773
6.4063997
6.4061756
6.4061553
6.40651
6.4065018
6.4061225
6.4061152
6.4062936
6.4066289
6.40695
6.4068948
6.4069281
6.4069964
6.4065816
6.4060537
6.4056327
6.4054308
6.4057642
6.4060611
6.4066539
6.408001
6.4090787
6.4087475
6.4078157
6.4573419
6.4571607
6.4583416
6.4587258
6.4089446
6.4087518
6.4080918
6.4071249
6.4065527
6.4066415
6.4066736
6.4066545
6.4072935
6.4083378
6.4090668
6.409291
6.4089052
6.4079308
6.3605291
6.3607418
6.3614119
6.3615117
6.3604509
6.3589635
6.3582591
6.3578692
6.357464
6.3577161
6.358004
6.3584795
6.3589632
6.3590023
6.3590776
6.3591724
6.3588019
6.3584604
6.3583043
6.3581521
6.3584755
6.3584672
6.3581197
6.3582438
6.3583564
6.3586631
6.3590322
6.3590089
6.3590376
6.359068
6.3586047
6.3581106
6.3577696
6.3574583
6.3577953
6.3581137
6.3587259
6.3601124
6.3610447
6.360816
6.3600768
6.3598191
6.4075833
6.40855
6.3606048
6.3609797
6.3607353
6.3601017
6.3592679
6.3586156
6.3586923
6.3587588
6.3588244
6.3596119
6.3606001
6.3613716
6.3616801
6.3613302
6.3156608
6.3150027
6.315174
6.3155881
6.3154926
6.3144454
6.3128051
6.3120056
6.3115484
6.3111195
6.3114816
6.3116869
6.3121279
6.312682
6.3127676
6.3128417
6.3128901
6.312452
6.3121416
6.3120525
6.311752
6.3120366
6.3120281
6.3117194
6.3119915
6.3120393
6.3123179
6.3127571
6.3127767
6.3128009
6.3127826
6.3122489
6.3117885
6.3115259
6.3110882
6.3114176
6.3117535
6.3123851
6.3138328
6.31463
6.314475
6.3139249
6.3136647
6.3142961
6.3146244
6.3143071
6.3137117
6.3130134
6.3122735
6.3123531
6.3124783
6.3126642
6.3136574
6.3146453
6.315499
6.3159371
6.2721146
6.2719494
6.2714092
6.2714987
6.2716179
6.2712691
6.2701388
6.2682634
6.267319
6.2667684
6.2663132
6.2667956
6.2669241
6.2673372
6.2679832
6.268127
6.2682011
6.2681936
6.2676672
6.267382
6.2673539
6.2668902
6.2671278
6.2671189
6.2668568
6.2672914
6.2672805
6.2675364
6.2680659
6.2681378
6.2681576
6.2680811
6.2674561
6.2670233
6.2668321
6.2662517
6.2665613
6.2669126
6.267568
6.2691002
6.2697798
6.2696818
6.2693192
6.269073
6.2695704
6.2698311
6.2694205
6.2688645
6.2682961
6.2674606
6.2675547
6.2677695
6.2681262
6.2694036
6.2704834
6.271491
6.2296995
6.2305617
6.2305316
6.2300882
6.2300692
6.2298567
6.2291449
6.227774
6.2255731
6.2244228
6.2237536
6.2232744
6.2238702
6.2239514
6.2243576
6.2251003
6.2253056
6.2253819
6.2253188
6.2247018
6.2244249
6.2244322
6.2238149
6.2239988
6.2239892
6.2237795
6.2243665
6.2243218
6.2245718
6.2251934
6.2253185
6.2253338
6.2251976
6.2244784
6.2240547
6.2239069
6.2231903
6.2234683
6.2238324
6.2245212
6.2261458
6.2267542
6.2267211
6.2265239
6.2262852
6.2266616
6.2268476
6.2263428
6.2258101
6.2253379
6.2244115
6.224522
6.2248526
6.2254392
6.2270886
6.228415
6.1891108
6.1908996
6.1920351
6.1921226
6.1917557
6.1916443
6.1910856
6.1897974
6.1878935
6.1852776
6.1838721
6.1830801
6.1825828
6.1832338
6.1833665
6.1838113
6.1846103
6.1848747
6.1849571
6.1848461
6.1841826
6.1838748
6.1838292
6.1831324
6.1832725
6.1832617
6.1830935
6.1837583
6.1837676
6.1840488
6.1847179
6.1848918
6.1849039
6.1847125
6.1839417
6.1834858
6.1832902
6.182507
6.1827576
6.1831322
6.1838556
6.185536
6.1862206
6.1863046
6.1861812
6.1858779
6.1861398
6.18627
6.1857247
6.1851654
6.1846759
6.1837075
6.1838267
6.1842745
6.185136
6.1872466
6.1504258
6.1534921
6.1562034
6.1575797
6.1576885
6.1573837
6.1572771
6.1564172
6.1541512
6.1510584
6.147934
6.1462835
6.1454052
6.1448762
6.1453561
6.145878
6.146419
6.1471104
6.1475366
6.1476418
6.1473865
6.1468284
6.1464373
6.1460183
6.1454951
6.1456477
6.1456352
6.1454514
6.1459404
6.1463246
6.1466865
6.1472361
6.1475595
6.1475831
6.1472382
6.1465675
6.1460265
6.1454622
6.1448661
6.1451453
6.1455298
6.1462579
6.1478212
6.1490609
6.1493425
6.1490321
6.1484663
6.1487042
6.1487647
6.1483522
6.1476601
6.1467803
6.1459846
6.1461204
6.1466431
6.1477623
6.1135015
6.1166035
6.1226132
6.1272059
6.1283277
6.1281916
6.1279527
6.1281245
6.127464
6.1232557
6.1172408
6.1136992
6.1120315
6.1111492
6.1105028
6.110207
6.1120608
6.1127177
6.1129208
6.1139073
6.1139954
6.1132018
6.1131653
6.1126693
6.1109509
6.1112089
6.1115217
6.1115083
6.1111608
6.110865
6.1125489
6.1130157
6.1130658
6.1139351
6.1139326
6.1130362
6.1128868
6.1122474
6.1103928
6.1106151
6.111075
6.1114938
6.1120968
6.113163
6.1164026
6.1166439
6.1153499
6.1143822
6.1150837
6.1146323
6.1146149
6.1137733
6.1116347
6.1115869
6.1118348
6.1123375
6.0860517
6.0862581
6.088618
6.0976595
6.1054899
6.1053693
6.1050279
6.1048099
6.1052594
6.1058107
6.0983014
6.089311
6.0865177
6.085875
6.0849624
6.0838177
6.0835573
6.0845306
6.0852138
6.085114
6.0847794
6.0848894
6.0854312
6.0856934
6.0851719
6.0843625
6.0845899
6.0854286
6.0854157
6.084531
6.0842577
6.0850326
6.0855508
6.0852636
6.0848145
6.0848292
6.0852528
6.0854258
6.084759
6.0837904
6.084049
6.0850417
6.0856881
6.0857399
6.087437
6.0929869
6.0942043
6.0896127
6.0871862
6.0864328
6.0869261
6.0871326
6.0862229
6.0850006
6.0848283
6.0856204
6.0642988
6.0645651
6.0652315
6.0669985
6.0653884
6.0656043
6.0659381
6.065738
6.0658587
6.0658486
6.0677578
6.0655406
6.0644819
6.063659
6.0630679
6.0640913
6.0630873
6.0636395
6.0650178
6.0645321
6.0646513
6.0653444
6.0641173
6.06376
6.0649247
6.0639289
6.0642519
6.0642346
6.0638622
6.0648273
6.0636122
6.0639557
6.0651739
6.0645651
6.0645875
6.0651595
6.0638334
6.0633632
6.064378
6.0634269
6.0639725
6.0647158
6.0655038
6.0675884
6.063968
6.0636073
6.067895
6.0677374
6.0665955
6.066971
6.0656462
6.0647797
6.0655338
6.0640437
6.061538
6.0607236
6.0675107
6.0750559
6.0797003
6.0817175
6.0784613
6.0785339
6.081067
6.0797375
6.0757363
6.0676556
6.0606049
6.0613939
6.0675556
6.0754559
6.0829014
6.0858474
6.0746069
6.0499558
6.0492502
6.074239
6.0856917
6.0823646
6.0752539
6.0691166
6.063142
6.0610012
6.0727604
6.0740099
6.0850034
6.0855466
6.0975136
6.0844748
6.0836555
6.0893698
6.0841426
6.0966518
6.0839282
6.0723817
6.0724827
6.0833191
6.0832516
6.0880462
6.0677917
6.0701187
6.0745574
6.0744565
6.0747021
6.0724404
6.0707839
6.0693347
6.0629494
6.0614257
6.0728276
6.0732045
6.0840341
6.0967193
6.0836037
6.084273
6.0845003
6.0891754
6.092267
6.0904683
6.1020062
6.0935229
6.0939005
6.090222
6.0850231
6.0795642
6.079021
6.0850497
6.0903993
6.0886609
6.1023859
6.0910124
6.0882901
6.0797075
6.0654673
6.0693331
6.0692806
6.0683497
6.0624881
6.0621704
6.0736154
6.0847705
6.0858731
6.099535
6.0855593
6.0739143
6.085177
6.0894069
6.1180215
6.1181107
6.1210344
6.1156146
6.1147198
6.1177978
6.1157883
6.150399
6.1884303
6.1934242
6.1876605
6.1493822
6.1543943
6.1631783
6.1521091
6.190923
6.1960484
6.1894807
6.1516754
6.1532483
6.1914281
6.1920433
6.1538141
6.1191647
6.0898403
6.0960317
6.0949099
6.091765
6.1020241
6.0947002
6.1248692
6.1345911
6.1390191
6.1249983
6.1271305
6.1368895
6.1023006
6.10505
6.0948265
6.1086544
6.1042648
6.0953927
6.0903753
6.1191097
6.1259234
6.1359506
6.1261405
6.1260432
6.1005363
6.0850118
6.0839561
6.0838605
6.0836507
6.0840468
6.0854611
6.1009599
6.1013283
6.1011579
6.1012781
6.1012898
6.1281113
6.1284814
6.1315309
6.1305728
6.0966539
6.0728601
6.0801886
6.0744236
6.0159244
5.955183
5.9450424
5.9453912
5.9558663
6.0167341
6.0316006
6.0702839
6.0768229
6.0774439
6.0712504
6.0335415
6.0191939
5.9577885
5.9478076
5.9478513
5.957846
6.0192839
6.0337935
6.0718382
6.0781942
6.0782003
6.0871808
6.0811177
6.0707685
6.0615867
6.0617336
6.0679344
6.0691125
6.0691166
6.0678828
6.0616016
6.0614171
6.070551
6.0809055
6.086909
6.0773155
6.0768284
6.070109
6.0305758
6.0149966
5.9509355
5.9398984
5.938948
5.9497423
6.0141191
6.0297348
6.069432
6.0761247
6.0758154
6.0691309
6.0307863
5.9921029
5.959603
5.8730674
5.7059816
5.5118576
5.3912812
5.3926523
5.5152443
5.7099223
5.8756289
5.9611715
5.993876
6.0337938
6.077093
6.0843602
6.0760832
6.0769596
6.0823643
6.0537573
5.9593681
6.0195991
5.9693476
5.9108075
5.7136985
5.5597526
5.4376935
5.2732833
5.162347
5.0508964
5.0063844
5.0056886
5.0491886
5.15954
5.2690505
5.4326183
5.5552851
5.7082937
5.4337167
5.2917952
5.1039721
4.9777951
4.8444615
4.7920526
4.792744
4.84633
4.9809369
5.1084535
5.2975691
5.4388456
5.277433
5.5245058
5.7821598
5.8657039
5.8492582
5.9497284
5.9499181
6.0538377
6.082378
6.0769678
6.0761508
6.0844232
6.0772139
6.0200287
5.9597914
5.8663209
5.8493711
5.7481642
5.7479129
5.4074345
5.0603462
5.169143
4.9871821
5.1118543
4.9361124
4.7700435
4.6247713
4.5496534
4.5490792
4.6226121
4.7663457
4.9313347
5.1053115
5.2715212
5.5175258
5.1624894
4.9796954
4.7673659
4.5498357
4.3731128
4.2771231
4.2776703
4.3752098
4.5539077
4.7731347
4.6301367
4.8551009
4.8028385
5.0166474
5.0162822
5.4075661
5.0595124
4.8543725
4.8023605
4.5558249
4.5564814
4.2814173
4.377685
4.1704007
4.0548614
4.0542469
4.1682938
4.3735758
4.6240576
4.8469319
5.0528666
5.3984711
5.0092019
4.7942947
4.5499934
4.2769047
4.0537227
3.9292343
3.9298676
4.0560314
4.0552077
4.2807498
4.3760708
4.6287282
4.7716663
4.9863231
5.1685374
5.5253979
5.7829797
5.9117919
5.9698652
5.9945936
6.0342849
6.0719273
6.0610385
6.0405724
5.962179
5.8775654
5.7159596
5.4408221
5.2775221
5.111899
4.935503
4.769162
4.5517955
4.3730443
4.1681029
4.0525355
3.9288896
3.9281823
4.0528123
4.2763688
4.5495449
4.7943008
5.0092381
5.3991745
5.0528716
4.8467351
4.6229455
4.3718648
4.1660647
4.0518231
4.2749825
4.2754219
4.5486982
4.6234455
4.84774
4.9823805
5.10976
5.2996318
5.439857
5.5613005
5.7146662
5.5215296
5.2745999
5.1640383
5.0527053
5.0085123
4.7944262
4.794187
4.5481592
4.6222487
4.3711944
4.5485845
4.7665786
4.979777
5.1629248
5.5192792
5.2729859
5.1064963
4.9315673
4.7663741
4.980257
4.8465599
5.0519191
5.0081424
5.400993
5.4013543
5.7439313
5.7792656
5.9104919
5.9614234
5.9937583
6.0609132
6.0713509
6.0763305
6.0685335
5.9856665
5.9665985
5.8379356
5.8252694
5.8252384
5.8376427
5.9664179
5.9855312
6.0671014
6.070992
6.059549
6.0700742
6.0592777
5.9913623
5.96537
5.8578058
5.8396371
5.8381924
5.8557522
5.9638451
5.9897486
6.0580461
6.0688867
6.0580748
6.0369046
5.9568962
5.9037279
5.7702689
5.7336699
5.73534
5.772785
5.9060417
5.9589303
6.0385578
6.0513407
6.0670666
5.9832731
5.9635206
5.8313788
5.8180745
5.8163986
5.829285
5.9620182
5.9818069
6.0657507
6.0740456
6.0896989
6.065874
6.0498257
5.965093
5.9851432
5.9230145
5.7798462
5.8201484
5.7521235
5.4162929
5.5332081
5.7211995
5.8879195
5.967923
5.9846094
5.9882336
5.9652847
5.9670161
5.9079456
5.7797518
5.8639457
5.8470679
5.7444436
5.7452433
5.84754
5.8648923
5.7810908
5.9098159
5.7118303
5.5583599
5.4362514
5.2719806
5.1624844
5.5199789
5.712519
5.8762991
5.9612618
5.9932055
5.9681252
5.9660931
5.8388965
5.826159
5.8257049
5.8382012
5.8298764
5.7892983
5.9269473
5.7238544
5.5461508
5.471023
5.4215147
5.3931845
5.4393919
5.2964911
5.440476
5.3935531
5.3107759
5.0730895
5.1520869
5.2486936
5.1583773
5.078124
5.0690409
4.9866713
4.9782127
5.0907828
4.9249244
5.0922282
5.2514728
5.539411
5.1538021
5.0710602
5.0742647
4.9884579
5.0797886
5.1613384
4.9801054
4.8344064
5.033711
5.4241663
5.7625484
5.7633078
5.8303199
5.7902165
5.9282597
5.9886799
5.9851433
5.9687155
5.8897536
5.7260045
5.5402234
5.4246356
4.9977585
4.9977152
4.8870467
4.9162182
4.8357079
4.8182873
4.7826445
4.7875534
4.5422027
4.6161841
4.7617801
4.7591731
4.9226797
4.7583513
4.7606638
4.5366098
4.5227695
4.3369012
4.6103259
4.8161893
4.9137316
5.0296632
4.9939557
4.8845902
4.8328653
4.7803579
4.7852278
4.8318431
4.6146446
4.5412627
4.5362473
4.2373375
4.2582616
4.3558911
4.1461496
4.3564032
4.3371
4.6115831
4.5370912
4.2369383
4.2579923
4.0290651
3.9995974
4.1196733
4.0004208
4.0295746
3.901646
3.8687099
3.8329449
3.9686209
4.2138505
4.5337481
4.6085062
4.7592985
4.9268298
4.9164232
4.7400067
4.4899493
4.741307
4.7601526
4.5072265
4.3158069
4.2934945
4.5909356
4.5106522
4.1885645
4.1669249
4.5213731
4.816178
5.476833
5.5942873
5.7686631
5.9255782
5.9099885
5.7598212
5.5849953
5.4766115
5.4781946
5.8221374
5.7538801
5.7820587
5.9249972
5.9865607
5.9665807
5.8895429
5.7244047
5.5361918
5.4175584
4.994737
4.8852352
4.8337315
4.9145803
5.0312036
4.8335255
4.785928
4.7810207
4.8171517
4.9893582
5.0804031
5.1609105
5.2523133
5.1547473
5.0714624
5.0754892
5.0944558
4.9809548
4.7640342
4.6167036
4.5417499
4.5366718
4.611919
4.3384281
4.2376035
4.2587203
4.3577656
4.5402425
4.525914
4.7609214
4.9259137
4.9287579
4.7667057
4.7631928
4.6157414
4.3402777
4.1214997
4.0008267
4.0301402
4.1480091
4.0311602
3.9022018
3.8691334
4.0013096
4.2401698
4.2619064
4.3599551
4.6211151
4.5476124
4.5414088
4.7895295
4.8250446
4.9944412
5.0797509
5.3154215
5.397538
5.4438924
5.5502894
5.7264202
5.4746859
5.4252707
5.3974212
5.4452562
5.3014749
5.0979864
5.2570744
5.542081
5.1585831
5.0760347
5.0848484
5.1675682
4.9865977
4.8415264
5.0407508
5.427434
4.9221245
4.8417399
4.8925279
5.0046348
4.7949236
4.7944148
4.5467229
4.2612512
4.0302158
3.9011596
3.9004665
4.0280404
4.2574461
4.541643
4.7875732
4.782594
4.8866814
4.8351929
4.9154527
5.0334517
4.834027
4.8176983
4.9876563
5.079144
5.1614269
4.9796388
5.0923923
5.2519999
5.1528513
5.0696873
5.0731071
4.9208906
4.757326
4.6100744
4.5364084
4.2359682
4.3347653
4.3543336
4.6147495
4.760373
4.534723
4.5200412
4.7558358
4.759566
4.924025
5.0923919
5.1063651
5.2950777
5.4369721
5.4431594
5.39528
5.4225861
5.3121978
5.2987515
5.4426447
5.7246539
5.5486802
5.4718578
5.3942325
5.151877
5.0731822
5.0686896
4.9867505
4.9794755
5.1608983
5.5370432
5.251119
5.0773823
4.9125034
4.8155659
4.6072759
4.333145
4.1168419
3.9983882
3.8673199
3.9970263
4.0267827
4.1435368
4.3532243
4.2553063
4.2329579
4.5325336
4.5388956
4.6130048
4.8326073
4.7860446
4.7798659
4.8314807
4.8827881
5.4206469
5.0318925
4.995906
4.9962464
4.7862596
4.5393911
4.2557085
4.0274362
3.9973484
3.8679219
4.0002746
4.1182405
4.1453305
4.358051
4.3376328
4.2390759
4.5402889
4.6137085
4.619483
4.764526
4.53737
4.3548735
4.3342708
4.2332573
4.5326548
4.6079019
4.6139845
4.761925
4.7574479
4.522013
4.7601721
4.923043
4.9270632
5.0968944
4.9851811
4.8405372
4.8234985
4.788378
4.8401737
4.8914977
5.4273074
5.0041018
5.0396035
4.9203365
5.0829902
4.9920726
5.0732501
5.0769481
5.1559641
5.5420514
5.1664681
5.256086
5.4464577
5.3025606
5.094555
4.9812459
4.8335706
4.816026
4.780024
4.8316716
4.8829584
5.4208718
5.0325165
4.9125307
5.0787246
4.9881771
5.0696536
5.0743018
5.1527577
5.5380508
5.1621015
5.2530254
5.4456475
5.7259775
5.3971013
5.3154058
5.4247845
5.3975235
5.7273581
5.5512817
5.4740961
5.890146
5.9116693
5.7646047
5.592092
5.4859874
5.486252
5.592697
5.7644925
5.9113498
5.762461
5.5876169
5.5965085
5.4779838
4.8170556
5.0696329
5.0745231
5.6294544
5.8466789
6.1028073
6.1364106
6.1254432
6.1182289
6.0898593
6.0950966
6.0933767
6.1234478
6.1198438
6.1192243
6.1205094
6.1160751
6.1247904
6.1340396
6.1380943
6.1042067
6.1019899
6.0650576
6.0643978
6.1023231
6.1341561
6.1468709
6.1387716
6.1470313
6.1084739
6.0851839
6.0792899
6.0717394
6.0951614
6.1024746
6.1047969
6.1402261
6.1381593
6.102192
6.0772881
6.0520631
6.0521718
6.0772849
6.0726527
6.0727291
6.0967831
6.096718
6.131458
6.1283575
6.1280905
6.1305897
6.0967276
6.0730252
6.0802386
6.0745771
6.0853745
6.0794854
6.0721023
6.0695454
6.0754544
6.0825761
6.086621
6.0766991
6.0529206
6.0529928
6.0769464
6.0871474
6.083407
6.0758113
6.0679738
6.0618397
6.0608886
6.0677671
6.0758355
6.0811453
6.0843918
6.0821813
6.0820979
6.0841206
6.0806477
6.0751243
6.0673471
6.0610909
6.0633747
6.0740342
6.072772
6.0836465
6.0844589
6.0855367
6.0974537
6.0850505
6.1157282
6.1194346
6.1264451
6.1264409
6.1577151
6.1596681
6.1602775
6.1604232
6.1597316
6.1573366
6.1932297
6.2324412
6.2741991
6.2802005
6.2748727
6.2713546
6.2288696
6.234242
6.2283289
6.2710044
6.276732
6.2876619
6.2741881
6.2316592
6.2368664
6.2300398
6.2727185
6.2746225
6.2320283
6.2326394
6.2751675
6.2880162
6.2856928
6.2793214
6.3003721
6.2570095
6.2450059
6.2035497
6.2146049
6.1731913
6.1571305
6.1623125
6.2019292
6.2038594
6.1639494
6.1777468
6.1790252
6.221843
6.2217252
6.2668482
6.2452877
6.2431111
6.2656736
6.3103443
6.31279
6.3103466
6.3304402
6.3281219
6.3082665
6.2879183
6.2454259
6.2327514
6.1925778
6.1545694
6.1641421
6.2042065
6.2156673
6.1983435
6.1606569
6.1746855
6.1806644
6.1662781
6.2044732