/*--------------------------------*- C++ -*----------------------------------*\
  =========                 |
  \\      /  F ield         | OpenFOAM: The Open Source CFD Toolbox
   \\    /   O peration     | Website:  https://openfoam.org
    \\  /    A nd           | Version:  7
     \\/     M anipulation  |
\*---------------------------------------------------------------------------*/
FoamFile
{
    version     2.0;
    format      ascii;
    class       surfaceScalarField;
    location    "460";
    object      phi;
}
// * * * * * * * * * * * * * * * * * * * * * * * * * * * * * * * * * * * * * //

dimensions      [1 0 -1 0 0 0 0];

internalField   nonuniform List<scalar> 
74922
(
-0.16876449
0.32441504
-16.373927
21.540907
-2.5335942
-2.7890366
0.10482206
-16.2821
-1.2115771
17.022889
-17.608201
17.974527
-0.0031961247
-18.152052
0.2276987
0.29987049
-0.00033957546
0.62098757
0.024481817
-0.42242048
0.68731297
-0.63339371
16.347029
-1.9076396
-2.0910346
29.523042
-0.3273191
-0.8378836
21.547443
1.7765768
-0.62124675
17.640856
-0.4926445
-2.1457302
24.773276
-0.083305788
-1.6720102
27.796305
0.35614515
-1.6743384
27.854468
-1.8441683
-2.1531446
24.915242
0.33653188
-0.61020204
17.772974
1.8325498
-0.8297419
21.696032
-0.46547592
-2.0874082
29.812073
-0.74561391
-0.65226591
16.493524
0.46972934
-0.4861797
18.422802
0.40252421
-0.51026035
18.29418
0.26306242
-0.77012429
16.692763
-6.5417518
-0.69843257
29.908344
-7.2597166
1.6402873
27.550306
3.6773084
-0.13930514
28.552907
7.1013386
1.5483706
19.84287
4.5901736
-1.9581305
25.434655
-2.6569772
-3.9657683
26.015331
-3.3978077
-1.3276813
22.479694
0.85303842
1.3414409
17.49104
7.6448719
2.1682774
24.759285
-0.74003666
-0.22296852
28.386366
0.042648992
-0.68466094
16.41782
0.00042632302
-0.62352098
17.932457
-0.042349706
-0.62371545
17.932484
0.73956329
-0.68541571
16.418471
-7.6300548
-0.22540938
28.37809
-0.8528142
2.1626355
24.751547
3.4072171
17.464026
1.3369427
2.6602021
22.440088
-1.3322085
-4.6053937
26.055959
-3.9593563
-7.0968272
25.496078
-1.9438951
-3.674779
19.859309
1.5667017
7.2698952
28.578244
-0.11172427
6.5568263
27.576055
1.6594182
-0.27134028
29.925932
-0.68726282
-0.37628917
16.706046
-0.76449456
-0.49376338
18.292775
-0.50801798
0.78758687
18.4244
-0.48366117
0.41953002
16.462246
-0.65220328
-1.7985358
29.796013
-2.0810102
-0.41583133
21.628113
-0.83393394
1.7883243
17.687418
-0.60185284
-0.50469643
24.847231
-2.1444348
-0.09406221
27.819759
-1.6635558
0.35358694
27.8461
-1.6708978
-1.8040396
24.900679
-2.1662655
0.2581414
17.679627
-0.61637435
1.9774295
21.628888
-0.8090638
-0.73625577
29.615745
-2.0748631
-0.55142641
16.38047
-0.62592437
-0.42364638
18.147491
-0.39764189
0.80849781
7.5350319
0.39970769
31.277686
-0.18857369
-0.16751215
0.83376623
7.5329214
1.4032946
5.8000603
-3.8802288
-1.1922094
33.054506
-0.51144919
-3.4945814
1.5315048
35.998714
1.3807134
7.974917
2.5994252
5.9189543
-0.18843495
-1.674327
25.935194
-0.051172925
-3.1562032
29.025145
0.10603334
-3.1558487
29.067938
-2.6457944
-1.6888614
26.041603
-1.3989347
5.9494621
0.52601539
8.024878
3.9653671
-3.5101259
1.5484744
36.1438
-1.2444676
-1.2742012
33.178527
-0.80323525
5.8261838
-0.37210528
7.5758399
0.66137783
-0.73790567
-0.38744584
30.997365
0.68927842
7.4407928
0.80098384
5.7527476
-5.92612
-1.0619633
31.55534
-7.1495779
-3.5011815
38.342882
-1.3464336
-5.1812329
40.890945
1.3771063
4.4509566
-6.0318449
44.685767
7.0936686
8.462753
4.9150453
8.9890375
-3.4711338
-0.56723724
25.330147
-4.6543208
8.2505813
0.55358746
7.8795517
2.8205465
-4.9123775
3.223716
42.345625
-5.7927282
47.731101
0.020373217
-6.9505832
1.3099389
42.819509
2.0452669
-7.0334037
42.41805
3.9926861
-6.406807
40.545373
3.9005567
-5.1106567
38.070026
-3.5994484
38.400175
3.6415821
-3.8635146
-4.2657489
38.118307
-2.6700831
38.873937
-4.8271384
-1.9686145
37.597432
-5.0851433
-3.0635073
39.687635
5.0979858
-4.2077372
-3.8839517
41.552497
-3.8276021
40.037211
-2.300119
-5.9552224
41.793622
-0.28920083
-6.3813173
43.064365
1.703604
-6.3663277
43.263381
6.2877395
3.378986
-5.9376218
42.279952
2.877096
41.253791
3.3713634
3.6984995
-5.0755918
38.644413
6.8873704
38.195206
-0.80495815
-0.78583885
32.882956
-0.42560662
5.7041246
-0.49241838
7.3715155
-0.751797
-0.7518986
0.49388643
30.685489
-3.6577389
38.720167
-4.135616
-4.1385274
3.6571209
38.422151
-5.1476047
40.568436
-3.9445889
-3.9568294
5.1391531
42.298293
-1.978394
-4.4090805
43.724544
0.29374918
-4.6472626
44.431981
2.4825842
-4.6538568
44.244097
-4.4095669
43.204801
4.5446123
-2.2429788
-2.623675
44.209278
5.6768252
-2.0033653
42.600627
5.6797544
-1.5764354
40.477581
4.414095
-0.9025448
38.126158
-0.34025377
37.382021
-4.9343528
0.044270729
33.539788
-6.0774073
0.05389429
37.833809
-5.959811
0.075644149
40.788358
-4.7009197
0.10517373
43.049211
-2.679407
0.1386471
44.64386
2.3396914
0.17389638
-0.25202349
45.55251
-0.27317946
45.164026
2.1795024
-2.3230652
45.381106
4.386758
-2.2057843
44.86319
5.9209423
-1.9929644
43.730388
3.384032
-1.7101658
6.2770026
42.288664
5.0710026
40.571852
3.6981632
-2.8778365
3.3716396
38.648389
0.78871113
38.721817
-0.80435855
-6.883365
32.883543
-0.42616591
5.7043199
7.3716647
0.40007391
4.3915891
2.5800017
2.2012332
3.9031607
0.13705063
2.4271027
-0.30315232
-0.059767843
-0.13563942
0.52837021
16.270622
-8.9703788e-05
17.656275
0.14032869
0.13513934
17.656588
0.14017727
0.52684164
16.26993
-0.13701258
0.83544697
30.98739
-2.6864545
-16.823531
0.12822033
19.125325
-1.555262
1.5310523
6.3717992
14.351715
4.6190955
-0.55790273
16.014363
-1.1441544
0.11022335
23.825708
-1.9869864
-1.3181539
30.994339
-3.451815
-0.3699522
27.869482
-2.5637949
2.5540348
23.613188
-22.904211
-2.5093074
-0.24170416
16.019986
-11.401491
-1.7454141
-3.9935059
19.392999
-14.045643
-1.753461
-1.0245266
30.121146
-2.7583272
-0.43707181
16.481857
-0.20608262
-0.23828312
17.877489
0.23383735
0.14184744
17.795467
0.21510206
0.34057099
16.429783
-0.048603841
-0.26646974
32.043094
-1.4830561
0.18652282
20.945472
0.24073084
0.63102928
17.271152
-0.030604145
0.015502628
26.823033
-1.3789226
0.057880192
29.01115
-1.2232918
0.07601964
28.985858
-1.2224853
-0.58629083
26.738816
-1.3775069
-0.1797888
17.186304
-0.033575133
0.25013281
20.819997
0.24050934
-0.43914805
31.807718
-1.4665538
-0.045772498
-0.081067486
-2.2015895
-0.2124237
2.4493082
-2.5672938
3.0832831
-0.29718635
0.43552414
4.5301034
4.033995
4.8221325
-0.17014936
-0.83041188
-6.0192031
-1.9564354
-2.4892167
32.336043
-2.4756112
1.9500358
-38.981625
37.992585
-1.9150905
-2.6786455
3.0935584
-3.3902099
-2.5675634
1.174799
3.4175668
-3.687674
-3.7281173
38.163594
-2.5402559
38.963487
-1.9516625
-4.7304233
37.5132
4.4071746
-0.97730027
-5.6435877
38.025267
-0.40812776
37.273264
-4.9325903
33.501837
-6.0678544
37.792864
-5.9353812
1.6783203
40.728613
-4.6638419
2.1459523
42.946841
-2.642741
2.4347882
44.482594
-0.23027383
2.5893337
45.340994
-0.21004319
2.2858191
2.639824
45.561181
2.2828697
45.789342
4.6126396
0.24591305
45.389076
6.3394548
0.27861347
44.44533
6.9316958
0.28246452
43.278857
1.3120085
5.7802223
0.018201359
42.834631
4.9070547
41.262344
3.2223443
-0.55118248
2.8207234
42.350068
38.195211
4.8949845
3.0687348
-3.5502264
38.837578
-5.0558596
-2.7170535
1.037726
6.2129763
0.36133568
-6.3701351
0.49355336
3.1595282
16.805684
1.5331406
-0.83679926
0.12804372
-1.5512766
19.135401
30.992014
-2.6846105
1.029891
2.2136026
29.788552
-2.1755138
0.049160444
17.035662
0.029047947
-0.00051481922
18.060032
-0.41811038
-0.04994022
18.0605
-0.41846722
-1.0311404
17.035791
0.029132159
2.2113186
29.788978
-2.176854
0.039245883
21.753895
-0.57136982
-0.98947912
17.362799
-0.38762119
-1.7505777
25.612991
-0.96808755
1.2537466
29.468321
-1.493513
1.2094496
29.118915
-1.3232189
0.39608036
25.267576
-1.1332678
-0.1616092
17.342345
-1.0613793
-1.3170104
21.757906
-1.3286452
0.4717453
29.844901
-1.6453129
-0.25019492
17.020742
-0.041959122
-0.28956293
18.103761
-0.27797524
-0.23165951
18.096632
-0.41508634
-1.3229869
17.1332
0.20120313
1.6659186
30.200081
-1.2819263
0.037293445
22.414708
0.15825298
-0.99916062
18.148077
0.19286619
-0.075798993
26.498943
-0.54904955
0.037617533
29.99648
-1.0812062
0.14051632
29.938107
-1.0824596
1.0231991
26.416072
-0.55393873
-0.037498331
18.092871
0.18755627
-1.7082875
22.328743
0.16099509
30.052666
-1.3006335
0.13417361
0.11790399
30.799401
-0.97800195
0.067821506
17.513342
-0.39479966
-0.0022778107
18.693688
-0.62885047
-0.06881062
18.695422
-17.978669
-0.62989356
-17.033371
17.518258
-0.13049984
-0.39382141
-16.298629
-1.209318
0.10738324
0.17133465
0.44512354
-0.2176152
-0.042847531
-0.23798789
31.8515
-1.4618022
0.20858994
20.864313
0.25383318
0.63977136
17.234394
-0.033093434
0.021344624
26.790123
-1.3820718
0.07549849
29.007937
-1.2216336
0.10127292
29.00991
-1.2158076
-0.57382588
26.789362
-1.3701527
-0.14617998
17.243529
-0.023600911
0.28025398
20.908686
0.23239996
-0.33158149
31.992919
-1.4766575
-0.14539327
16.415719
-0.047630378
0.23856534
17.791282
0.21734319
0.43195911
0.2355626
17.879596
1.023329
-0.20274014
16.48804
3.9919076
30.131502
-2.7533876
-14.049303
19.394688
0.24151746
-1.7541805
-12.005946
11.417121
14.233549
9.7695286
6.8439038
22.946885
6.3552343
0.36950436
2.550736
-2.5132291
23.604478
1.3139009
27.843494
-2.5656578
-0.11444767
30.970618
-3.4525847
0.54911994
23.850175
-1.9844542
-14.317329
-1.1403025
16.037507
4.6185633
2.7621806
2.3499361
-0.090564801
1.973615
-0.26117209
2.5554128
-4.5992759
15.34128
-2.1491763
-3.1646037
-3.5386022
3.9641934
0.58983625
-4.2171865
6.8407006
0.69342332
-6.481541
-7.8789714
0.12318261
4.6589203
3.4720246
8.251775
-0.55842835
25.33749
-4.9193002
-4.4527882
47.746399
-6.0119219
1.3455583
44.710615
1.3516963
-7.0061635
2.0438892
42.439299
-6.3440807
2.2941622
43.086291
-4.6068567
2.4685596
44.264761
2.5980617
45.180126
-2.1790903
4.522415
4.3534021
44.231046
0.20519598
4.6667933
44.659506
2.4984793
4.6176259
44.490595
4.4133249
4.3578523
43.710941
5.5881291
3.8423185
42.307619
3.0353298
40.325574
-4.8664685
39.540663
-3.9005134
4.8212238
41.120678
-2.2121828
5.5454095
42.315555
-0.17352958
5.8996643
42.960977
1.9375113
5.9326581
43.068079
3.8254824
5.6580323
42.623003
-4.1954128
5.0507863
5.0735481
41.576993
5.9102437
43.230048
6.3733891
3.8221396
41.819413
5.1570829
3.9917531
40.570131
7.1528904
40.919447
-3.4791357
5.9282916
38.369982
-5.0757327
3.8981905
38.094721
4.2600845
40.06234
-3.8220034
3.6340199
3.5694453
38.136093
-3.0130151
4.814236
39.703908
-1.5207929
5.6623548
40.493559
0.13259543
6.0565905
40.805674
1.7350836
6.0441832
40.747162
3.0864625
5.6163259
40.342286
4.7009445
39.551351
-1.9836299
3.4800014
37.539439
-1.0095662
4.3959241
38.054349
-0.083342379
4.9208691
37.815862
0.87287078
4.9178847
37.84492
1.9391531
4.3950946
38.127575
2.6437818
3.4933774
37.596596
0.37083462
1.2607438
38.876335
-0.73679807
0.65400709
31.005587
0.36296877
1.042196
38.421141
-0.80314237
31.576678
-0.67666221
5.756041
7.442892
2.5915448
0.44727181
4.4040755
0.10378639
-0.34027436
3.0635953
-2.2355506
-0.27718527
2.4137821
3.9677622
-0.16291652
4.8014136
-0.94792009
6.0490564
-2.1481718
16.327847
0.038896803
0.27723823
-2.724782
21.50944
-2.7729453
-0.4744298
-0.24797242
17.023789
1.3147539
29.850901
-1.6407984
0.16063869
21.761637
-1.3287036
-16.007269
-0.40226468
17.344868
-1.0623777
-1.7492138
-3.1752354
20.109177
-6.2037875
-3.4264296
-4.0462116
3.8919764
0.40542942
-2.3609558
0.9244702
6.9935934
-8.9835375
0.43673648
2.5240139
4.2679569
5.2919553
0.37942874
-2.2228999
-2.539586
18.717111
1.1365571
27.340399
-1.4562911
-8.2228434
-0.080710262
-1.2103321
25.270223
-1.2538847
29.121946
-1.3268734
1.7477623
29.4694
-1.4951528
0.99253954
25.609563
-0.9665105
-0.040680512
17.359277
-0.38562366
21.752418
-0.56875091
-0.35672757
0.032117226
22.831887
-0.75176256
0.0044596002
30.72382
-1.2884487
0.011048108
17.535001
-0.47525417
-0.00060678204
18.752334
-0.6587751
-0.011826683
18.752717
-0.65912132
-0.0056312971
17.535164
-0.47493085
0.35515319
30.724083
-1.2880813
0.031054704
22.832112
-0.75177505
-0.34783445
18.467568
-0.69324311
-0.34610128
26.818164
-1.1639136
0.1833892
30.324369
-1.3479244
0.47202623
30.293668
-1.4116545
0.25551527
26.788282
-1.2337491
-0.13286719
18.469235
-0.69435373
-0.59776508
22.841208
-0.61866929
-0.24866734
30.712741
-1.2020699
-0.1916694
17.512204
-0.50977013
-0.24298
18.74672
-0.56496117
-0.17708775
18.748641
-0.69491127
-0.22761138
17.572961
-0.3588644
0.064548134
30.883556
-0.95428565
0.0020240437
23.043134
-0.60038201
-0.17446319
18.668102
-0.41484073
-0.12936759
27.03871
-0.62722249
0.019984843
30.489687
-0.64776792
0.15607454
30.482583
-0.64711759
0.18595285
27.01036
-0.62746778
-0.0099653091
18.632172
-0.41823845
22.989282
-0.59187407
-0.042392371
0.014010218
23.235548
-0.21789618
0.020930772
31.089917
-0.35068589
0.0033562709
17.685039
-0.15321775
-0.001281835
18.910132
-0.21231552
-0.0043205828
18.910817
-0.21284349
-0.018565213
17.68634
-0.15280105
-30.812975
31.094009
-0.35036882
0.054321344
-30.081227
-0.97684542
0.13536388
1.7288715
-1.2975012
0.063583449
0.17507263
22.35504
-0.97503686
18.114254
0.18527987
-0.054711616
26.471556
-0.55438214
0.06105583
29.989991
-1.0810027
0.16697667
29.953722
-1.0775279
1.0553476
26.449276
-0.54379728
-0.0048978483
18.12972
0.2005708
-1.6339623
22.392773
0.14454675
1.3302818
30.176683
-1.2793223
0.23312748
17.124595
0.20172277
0.28738663
18.093147
-0.41325701
18.104573
0.19026912
-0.24209119
18.747849
-0.56473188
0.24670428
17.514202
-0.50811363
0.59565434
30.716259
-1.1994757
0.13189453
22.843427
-0.61856598
-0.25665822
18.470392
-0.69353234
-0.47321536
26.789112
-1.2330179
-0.18444339
30.293944
-1.4107782
0.34510922
30.324325
-1.3474318
0.3465595
26.817936
-1.164695
18.467313
-0.69449621
-0.0092698662
-0.095866026
18.802
-0.2270915
-0.11691324
23.204234
-0.26278584
-0.040441486
31.086317
-0.43540837
-0.026557557
17.703166
-0.18076568
-0.00062805267
18.943605
-0.21619459
0.025933638
18.943658
-0.21648128
0.039623622
17.703272
-0.18051262
0.1159228
31.086489
-0.43514203
0.0086909989
23.204349
-0.26307379
-0.096504901
18.802146
-0.2269058
-0.099244923
27.218406
-0.39476948
0.019555854
30.672531
-0.46064053
0.10863155
30.682034
-0.46832981
0.059700906
27.240012
-0.39836735
-0.065952457
18.817772
-0.22282128
-0.2518615
23.212719
-0.18677927
-0.17585298
31.064185
-0.42419056
-0.13355756
17.678798
-0.20769481
-0.14780445
18.928788
-0.16651711
-0.076902763
18.928721
-0.25006059
-0.08762294
17.712536
-0.12677799
-0.0022133807
31.133822
-0.33172312
0.0020782738
23.266499
-0.22650501
-0.033742303
18.857617
-0.15168365
-0.028441665
27.274065
-0.23472809
0.0066767873
30.70156
-0.23978713
0.038003932
30.693875
-0.23911264
0.032199832
27.253898
-0.23518637
18.835766
-0.1555363
-0.02592222
0.018211962
18.878696
-0.036606755
-0.04435917
23.286645
-0.033565625
-0.018071817
31.14222
-0.078502425
-0.0094640306
17.710833
-0.034458249
-0.0014590969
18.941422
-0.039465054
0.007972262
18.941263
-0.040024354
0.018179629
17.71017
-0.034012806
0.049574851
31.141105
-0.078230817
0.032832952
23.286872
-23.241252
-0.029591669
-18.838772
18.877853
0.031476405
-0.038203851
-18.643719
-0.006146015
-0.028228396
-0.15930338
-0.14625375
-0.42341689
-0.031056533
-0.10211546
27.017904
-0.63292196
0.048055148
30.483025
-0.6490787
0.18603692
30.492882
-0.64400609
0.21810541
27.034778
-0.61986773
0.022817708
18.658715
-0.40797204
-0.040390771
23.029951
-0.61239028
0.23608262
30.87264
-0.95160529
0.1790407
17.56938
-0.35761602
18.747359
-0.69430669
0.14703821
-0.078126035
18.929361
-0.25006739
0.13241165
18.930332
-0.166582
0.17426402
17.68038
-0.20683549
0.25018608
31.06654
-0.42293881
0.065295098
23.214103
-0.18694248
-0.060306308
18.818554
-0.22247751
-0.10920734
27.240615
-0.39813661
-0.020140825
30.682271
-0.46825296
0.098627507
30.67252
-0.46064457
27.218267
-0.39487106
0.014136739
-0.032685292
27.316022
-0.080815629
-0.017339148
18.878757
-0.047268429
-0.060126039
23.290593
-0.045343216
-0.038192827
31.158477
-0.094204772
-0.020179749
17.726264
-0.040960212
-0.00035627261
18.962435
-0.038297127
0.01977634
18.96237
-0.038483307
0.037702752
17.726297
-0.040803238
0.059572417
31.158558
-0.094057283
0.017027858
23.290635
-0.04551209
-0.014474339
18.878819
-0.047162753
-0.033013865
27.316084
-0.080749656
-0.025114116
30.757821
-0.093821113
-0.013447367
30.763595
-0.093149441
-0.024122107
27.328619
-0.078779703
-0.047302636
18.887029
-0.047781357
-0.11493867
23.292564
-0.014675933
-0.093628577
31.13782
-0.095153383
-0.066664847
17.706867
-0.055116691
-0.069892635
18.947331
-0.015040313
-0.030157443
18.947653
-0.058376002
-0.022175139
17.724462
-0.01950824
0.011260171
31.168176
-0.067473507
0.01239905
23.307353
-0.042279418
0.0075957068
18.895005
-0.032526486
0.0026828546
27.330831
-0.051364436
-0.0028061704
30.761005
-0.054299603
-0.0096719731
30.753846
-0.055118024
27.313935
-0.05396964
-0.029737309
0.022342472
27.345194
-0.026862163
-0.029482948
18.896893
-0.020354789
-0.046426737
23.304355
-0.0022188428
-0.02449186
31.152656
-0.032912573
-0.011052107
17.713101
-0.016376123
-0.0015707014
18.942466
-0.011119006
0.0090675901
18.941946
-0.011910181
0.022647904
17.711705
-0.015753113
0.046196171
31.149523
-0.032449465
0.030860236
23.302182
-0.0012948167
0.033404614
18.89462
-0.020567562
-27.312515
27.342704
0.028319318
-0.026766945
-27.255916
0.029099095
-0.055049096
7.3576877e-05
-0.23970763
0.036185438
30.69316
-0.24133024
0.067898228
30.700956
-0.23730534
0.062047088
27.273905
-0.2294901
0.014428529
18.855815
-0.14699596
0.018373717
23.262077
-0.23524022
0.0933116
31.131711
-0.33046069
17.712539
-0.12603674
0.030270019
-0.024497178
17.726383
-0.019290565
0.068814533
18.949435
-0.058357493
0.065633169
18.949089
-0.015306719
0.092344236
17.708245
-0.054646576
0.11372393
31.13957
-0.094601813
0.046818729
23.293458
-0.014889854
0.023730092
18.887527
-0.047579497
0.013132461
27.329007
-0.07863473
0.024813183
30.763757
-0.093085947
30.757843
-0.093821852
0.012510909
-0.027546823
30.799465
-0.028714005
-0.0059917876
27.358735
-0.026372304
-0.018967064
18.908361
-0.018607422
-0.041708409
23.320272
-0.0087708805
-0.026682907
31.176946
-0.034264311
-0.012739119
17.728921
-0.017261996
-0.00015961774
18.960421
-0.01103779
0.012517713
18.960364
-0.011142039
0.02641274
17.728919
-0.01717698
0.041426518
31.176965
-0.034192937
0.01881103
23.320291
-0.0088709098
0.0058255939
18.90839
-0.018565174
-0.012662635
27.358755
-0.026349827
-0.027701866
30.799447
-0.028721263
-0.035261291
30.797394
-0.027804712
-0.037549125
27.35435
-0.025008842
-0.036079059
18.903465
-0.019346572
-0.0626779
23.310796
0.0066075106
-0.045072994
31.153069
-0.033545087
-0.028909533
17.712069
-0.022154344
-0.02642571
18.945895
-0.0016468068
-0.0075229257
18.947775
-0.019591939
0.0019476898
17.723498
-0.0091096027
0.022323572
31.174542
-0.027335432
0.01604408
23.322954
-0.010460311
0.014313274
18.912573
-0.016670017
0.0058661962
27.362878
-0.024300462
-0.0084579079
30.799462
-0.027111184
30.791503
-0.027965066
-0.022157261
0.010488592
30.83415
-0.034775385
-0.026943464
27.379694
-0.032686825
-0.026305982
18.918388
-0.024256847
-0.040901757
23.325124
-0.008051203
-0.020064769
31.169098
-0.038392256
-0.0093264517
17.721395
-0.020272543
-0.0015587622
18.949216
-0.015672012
0.007199331
18.948622
-0.016589663
0.017214632
17.720008
-0.019557576
0.037600896
31.165833
-0.037823166
0.024542789
23.322421
-0.0089987962
0.025080738
18.916046
-0.023787434
0.020407633
27.377407
-0.032179227
-30.789949
30.833419
0.0088992104
-0.034311283
-30.751482
0.015563626
-0.027601572
0.025064231
-0.055381071
0.017509612
30.760785
-0.053828439
0.006903556
27.333207
-0.049962922
-0.0041706489
18.896547
-0.030501419
-0.0035106041
23.307948
-0.046972008
31.170879
-0.067033517
-0.0023048085
0.021035902
31.178895
-0.027387029
0.0067560886
17.725974
-0.0092701215
0.02505085
18.949854
-0.019276765
0.027986122
18.947547
-0.001978395
0.044044941
17.71321
-0.021801677
0.06179201
31.154369
-0.033231254
0.035730505
23.311371
0.0064116546
0.037281774
18.903774
-0.019221957
0.035073814
27.354584
-0.024923088
30.797491
-0.027765377
0.018517351
-0.02750266
30.836461
-0.032180534
0.0042233271
30.843831
-0.032633559
-0.0084720387
27.399232
-0.030215684
-0.01618514
18.935602
-0.021676908
-0.031072993
23.347033
-0.013878098
-0.016396967
31.199008
-0.038036375
-0.0079469591
17.7391
-0.019925982
-8.1900115e-05
18.967812
-0.016425389
0.0078371411
18.967749
-0.016474777
0.016253878
17.739087
-0.019884342
0.030926829
31.198997
-0.038007782
0.016107829
23.34703
-0.013929945
0.0083921547
18.935607
-0.021657592
-0.0043001641
27.399237
-0.030209746
-0.018599307
30.843819
-0.032641116
-0.027616439
30.83641
-0.032203854
-0.028599402
27.382926
-0.029626023
-0.025636321
18.920819
-0.022082783
-0.039226676
23.327868
-0.0053295784
-0.021442347
31.170164
-0.036095147
-0.012354833
17.722401
-0.020767237
-0.0082000202
18.953497
-0.012998762
0.00092115511
18.956711
-0.01929381
0.0071882665
17.732798
-0.01688047
0.023069982
31.192964
-0.035576828
0.014201819
23.345355
-0.015297345
0.010585306
18.935708
-0.021182728
0.0025245001
27.399867
-0.030553294
30.843524
-0.034073982
-0.0099057714
0.00046820769
30.882715
-0.032792125
-0.017865831
30.87254
-0.033281549
-0.020372475
27.410682
-0.031191217
-0.020018559
18.938389
-0.022816739
-0.030943911
23.344449
-0.010798295
-0.013994653
31.186854
-0.036537554
-0.0067843407
17.731742
-0.019497997
-0.001348571
18.958323
-0.016393066
0.0048588985
18.957808
-0.017249318
0.011062289
17.730669
-0.01881633
0.026726145
31.184281
-0.03598138
0.017104366
23.342127
-0.012461948
0.016309032
18.936498
-0.022132695
0.012932774
27.408747
-0.030680201
0.0047051472
30.871786
-0.033009696
-30.844703
30.883586
-0.0043255124
-0.032790923
-30.800419
-0.003981723
-0.033883521
0.00060201964
-0.02679408
-0.0099483999
27.36592
-0.023994371
-0.013914401
18.915249
-0.016194218
23.32565
-0.01182796
-0.025438412
0.015525663
23.348377
-0.014619931
-0.0090308423
31.197085
-0.035848056
-0.0021197985
17.735
-0.017233522
0.0067427327
18.958541
-0.018767887
0.011571166
18.954804
-0.013312233
0.020657948
17.723257
-0.020458696
0.038605909
31.171078
-0.035852242
0.02539829
23.328224
-0.0054746913
0.028422737
18.920999
-0.022004022
27.383058
-0.029575028
0.016612365
-0.017565859
27.410846
-0.029460909
0.0098671757
30.872515
-0.032095736
0.0002593954
30.882737
-0.032271756
-0.007116551
27.433488
-0.029708391
-0.012049793
18.958867
-0.020948868
-0.022035018
23.370065
-0.015496938
-0.0096945509
31.220836
-0.036134644
-0.0049410658
17.751309
-0.018957461
-4.3132069e-05
18.978294
-0.017263499
0.0048816942
18.978233
-0.017291714
0.0096329591
17.751274
-0.018936452
0.021975625
31.220802
-0.036117385
0.012019737
23.370052
-0.015519562
0.0070831335
18.958863
-0.020944327
-0.00029184936
27.433492
-0.029711835
-0.0099073175
30.882739
-0.032284242
-0.016675936
30.872495
-0.03211284
-0.017672483
27.410782
-0.029495517
-0.016702488
18.938571
-0.021142097
-0.025125686
23.345048
-0.011107385
-0.010705613
31.188377
-0.034546247
-0.0057360803
17.734123
-0.018709463
-0.002125293
18.964046
-0.016094262
0.0026522732
18.968054
-0.018056394
0.006120052
17.745099
-0.017801201
0.017820374
31.214251
-0.034984473
0.010072084
23.367387
-0.016680765
0.0058221778
18.95781
-0.020430752
27.432925
-0.029608296
-0.0019750906
-0.0022475163
27.456845
-0.023188771
-0.0079028497
30.910601
-0.025589274
-0.012540574
30.899613
-0.025932059
-0.013522477
27.432617
-0.024326382
-0.013452799
18.952824
-0.017713634
-0.020725564
23.358193
-0.0095371223
-0.0086436332
31.200316
-0.02820021
-0.0043808199
17.739929
-0.015191246
-0.0010386581
18.965593
-0.013247763
0.0028699744
18.965199
-0.013941985
0.0062013763
17.739216
-0.01463675
0.016920399
31.198583
-0.027719998
0.010621128
23.356534
-0.011171809
0.009381821
18.951555
-0.017063812
0.0073308434
27.431288
-0.023896802
0.0022966311
30.899063
-0.025780108
-0.003174924
30.911165
-0.025675354
-27.434972
27.458205
-0.0062821353
-0.023553385
-27.40245
-0.0096711865
-0.029939695
-0.012049821
-0.030708133
18.938263
-0.021476928
-0.012743736
18.959799
-0.021003412
-0.021481091
23.369886
-0.01516379
-0.0083737514
31.217364
-0.035328311
-0.003888542
17.746715
-0.018200883
0.00083142512
18.969411
-0.017494941
0.0051221835
18.96496
-0.016356658
0.010138484
17.734703
-0.018461264
0.024712148
31.188965
-0.034360974
0.016554352
23.345253
-0.011200594
18.938672
-0.021087824
0.0095669615
-0.009955173
18.952466
-0.016611771
0.0087115376
27.431889
-0.023541173
0.0044692492
30.898925
-0.025655897
-0.00109286
30.91046
-0.025731133
-0.0049147042
27.457519
-0.023653877
-0.0080671143
18.975301
-0.016584096
-0.014456485
23.38622
-0.012851901
-0.0054199691
31.23699
-0.027931287
-0.002941022
17.760816
-0.014763848
-2.0497805e-05
18.986671
-0.01395531
0.0029208857
18.986597
-0.013964615
0.0053962507
17.76078
-0.014761434
0.014437624
31.236951
-0.02793584
0.0080576398
23.386205
-0.012861838
0.0049068314
18.975298
-0.016590518
0.0010848613
27.457523
-0.02366508
-0.0044825096
30.910466
-0.025742782
-0.0087397389
30.898921
-0.025673671
-0.0096226834
27.43186
-0.023568588
-0.010042818
18.952418
-0.016648396
-0.015471451
23.358286
-0.010855283
-0.0054130857
31.202601
-0.027012815
-0.0029134404
17.743275
-0.014447516
-0.00051564686
18.97252
-0.013559986
0.0020639177
18.976944
-0.014163478
0.0036091429
17.754979
-0.014239819
0.011456968
31.230868
-0.027254453
0.0060073584
23.38365
-0.013907541
18.974193
-0.015965506
9.1782321e-05
-0.0030847638
18.984493
-0.011478842
-0.0023577251
27.471704
-0.016674085
-0.0055196168
30.927742
-0.018364927
-0.0077456475
30.916139
-0.018600671
-0.0078615285
27.446001
-0.017460517
-0.0081363662
18.961703
-0.0126824
-0.012568979
23.366405
-0.0076221073
-0.0046030638
31.208657
-0.019835729
-0.0025179422
17.745106
-0.010854114
-0.00071573919
18.970149
-0.0098220195
0.0014629524
18.969866
-0.010315102
0.0028515458
17.744675
-0.010448766
0.0097260593
31.207634
-0.01948181
0.0059520075
23.365358
-0.0088907129
0.0046081372
18.960957
-0.012164706
0.0035955598
27.445216
-0.01712424
0.001022593
30.915804
-0.018491737
-0.001768117
30.928057
-0.018440688
-0.003296788
27.472485
-0.016971743
-18.975502
18.985241
-0.0052012169
-0.011956212
-0.00870417
-0.016557287
-0.014931132
23.385392
-0.0123523
-0.0056190237
31.232893
-0.027572744
-0.0030979833
17.756009
-0.014593563
-0.0004923363
18.977826
-0.013683398
0.002475107
18.973081
-0.013750205
0.0050347882
17.743632
-0.014257856
0.015213363
31.202947
-0.026870851
23.358393
-0.010910282
0.0055331518
-0.0087985674
23.366787
-0.0089444594
0.004504256
18.961458
-0.01204715
0.0039809538
27.445379
-0.017152624
0.0017572445
30.915531
-0.01868226
-0.0010052327
30.92761
-0.018719464
-0.0027340966
27.472247
-0.017218651
-0.0048808911
18.985393
-0.012066593
-0.0087326209
23.395938
-0.0097106964
-0.0025834681
31.246973
-0.019702038
-0.001591108
17.766803
-0.010581509
-3.7312092e-06
18.991923
-0.010307037
0.0015867214
18.991847
-0.010306093
0.0025856389
17.76676
-0.010581537
0.0087446752
31.246932
-0.019709393
0.0048897209
23.395923
-0.0097130431
0.002741172
18.985391
-0.01207972
0.0010124553
27.47225
-0.01723206
-0.0017527987
30.927618
-0.018734164
-0.0039853984
30.915543
-0.018704238
-0.0045259865
27.445377
-0.017178864
-0.0055761202
18.96144
-0.012073268
-0.008948136
23.366746
-0.0089256729
-0.0024163298
31.211758
-0.019263271
-0.0014759398
17.749108
-0.010394589
-0.00018311356
18.977897
-0.010166376
0.0011203219
18.98254
-0.010399741
0.0014186583
17.761323
-0.010283371
0.0064514309
31.241458
-0.01924168
23.393722
-0.0105711
0.0013825711
-0.003349858
23.399155
-0.0081025514
-0.00095908732
18.990154
-0.0083104781
-0.0021245882
27.479839
-0.012014524
-0.0034150442
30.937068
-0.013193862
-0.0041164561
30.92508
-0.01334745
-0.003819903
27.453215
-0.012517686
-0.0044721111
18.966483
-0.0090654107
-0.0070266254
23.370642
-0.0063050607
-0.0018750393
31.21311
-0.013941735
-0.0012510846
17.747881
-0.007787965
-0.0004402897
18.972572
-0.007475459
0.00059601719
18.972371
-0.0077875205
0.00075974089
17.747645
-0.0075269422
0.0051916404
31.212549
-0.01369968
0.0030328489
23.37004
-0.0071387819
0.0016611352
18.966094
-0.0087130968
0.0013441403
27.452802
-0.012282512
0.00040101973
30.924894
-0.013263411
-0.00063963682
30.93722
-0.01324309
-0.0011812856
27.480233
-0.012218691
-0.0027852233
18.99053
-0.0086336771
-23.394787
23.399743
-0.0050757458
-0.0072776578
-0.0091037751
-0.0093359621
-0.0029084455
31.242616
-0.019479895
-0.0018601115
17.761901
-0.010542295
-0.00050742752
18.983051
-0.010047186
0.0011901566
18.978203
-0.010290148
0.002183937
17.749301
-0.010262255
31.211942
-0.019163705
0.0047840993
-0.00046584568
31.216893
-0.013608592
0.0028246123
23.37138
-0.0072307917
0.0015523122
18.966511
-0.0087117865
0.0014080191
27.452927
-0.012397395
0.00059438528
30.924726
-0.013481723
-0.00041586438
30.937008
-0.013497254
-0.00099541935
27.480259
-0.012438531
-0.0026706071
18.990873
-0.0087498881
-0.0048969142
23.401048
-0.0074915067
-0.00073445962
31.252334
-0.013867736
-0.00071394729
17.770025
-0.0076274458
3.3653364e-06
18.994732
-0.0077625261
0.0007266303
18.994644
-0.0077554429
0.0007526667
17.769982
-0.0076356673
0.0049243088
31.252288
-0.013882043
0.0026834847
23.401034
-0.007487206
0.0010127937
18.990871
-0.0087625706
0.00043494549
27.480272
-0.012460611
-0.00057731917
30.937026
-0.013521565
-0.0013970906
30.924747
-0.013504167
-0.0015525794
27.452942
-0.012421497
-0.0028442973
18.96652
-0.0087360229
-0.0048597966
23.371376
-0.0072311936
-0.00059491143
31.216813
-0.013682764
-0.00064653536
17.752299
-0.0075440303
-0.00011251651
18.980809
-0.0077082483
0.00042797001
18.985566
-0.0078326065
-1.8913789e-05
17.764801
-0.0074502434
31.247265
-0.013567409
0.0017440498
0.00079393039
31.249953
-0.010208179
0.00056408504
23.401641
-0.0065574587
-0.0013225298
18.992818
-0.0064053616
-0.0016654635
27.483666
-0.0091290811
-0.0018443504
30.941432
-0.0099184566
-0.0017033197
30.929243
-0.010005554
-0.0012534204
27.456555
-0.0094098037
-0.0022255794
18.96868
-0.0068216553
-0.00370419
23.372469
-0.0055843368