/*--------------------------------*- C++ -*----------------------------------*\
  =========                 |
  \\      /  F ield         | OpenFOAM: The Open Source CFD Toolbox
   \\    /   O peration     | Website:  https://openfoam.org
    \\  /    A nd           | Version:  7
     \\/     M anipulation  |
\*---------------------------------------------------------------------------*/
FoamFile
{
    version     2.0;
    format      ascii;
    class       volScalarField;
    location    "410";
    object      k;
}
// * * * * * * * * * * * * * * * * * * * * * * * * * * * * * * * * * * * * * //

dimensions      [0 2 -2 0 0 0 0];

internalField   nonuniform List<scalar> 
25201
(
1109.7446
1109.0586
1109.7475
1109.0652
1090.8025
1094.866
1096.3478
1132.3839
1130.6253
1126.098
1130.6231
1094.8639
1093.2317
1048.787
1044.4764
1065.45
1061.2058
1056.1166
1050.585
1039.6454
1047.6231
1056.4065
1059.5052
1053.2693
1044.1536
1036.7194
1045.5896
1057.6106
1055.0055
1040.1821
1042.1
1044.7937
1028.4931
1031.4046
1035.2182
1044.4734
1053.5614
1050.8398
1040.7464
1037.8384
1048.9032
1047.7374
1039.0409
1026.9179
1036.2934
1046.3855
1056.5187
1072.4356
1090.3252
1093.2357
1129.6939
1127.2332
1110.9877
1113.826
1116.7772
1100.0351
1081.5719
1078.0401
1096.5214
1084.5565
1076.2469
1073.7274
1091.5487
1109.9815
1128.8037
1135.9608
1132.8568
1122.6724
1103.2993
1096.3443
1077.4176
1070.2962
1074.7926
1093.6725
1091.4177
1072.8245
1065.5897
1068.034
1059.6243
1062.1541
1065.1232
1067.8177
1062.3158
1071.7889
1068.2394
1073.9324
1058.4867
1048.7835
1041.1569
1045.9914
1045.2833
1048.6036
1042.8577
1038.4124
1033.8885
1036.8071
1032.249
1029.3933
1023.7746
1027.2268
1031.7786
1028.3277
1033.1042
1036.3631
1041.1614
1038.1725
1031.6581
1035.6829
1035.8335
1026.9108
1021.8184
1026.4717
1022.1078
1017.5242
1010.6688
1015.5593
1020.1084
1015.2535
1019.9485
1026.8036
1030.9305
1024.7025
1029.3493
1024.6437
1017.1795
1023.2523
1025.8086
1035.8372
1045.9952
1040.7491
1037.841
1036.2962
1046.3856
1047.8273
1050.738
1054.2157
1058.4868
1062.3173
1073.7271
1081.5703
1100.0332
1091.5479
1084.555
1076.2455
1078.0376
1096.5187
1113.8234
1116.7753
1129.6901
1135.959
1128.803
1109.9807
1103.2981
1122.6715
1132.8545
1130.2233
1127.2284
1090.3197
1074.7894
1093.6693
1077.4159
1070.2944
1073.9308
1065.1231
1067.8177
1062.1538
1059.6237
1068.032
1060.5646
1063.6304
1068.2382
1071.788
1064.6516
1063.6381
1082.8429
1073.2182
1064.652
1055.162
1045.4585
1054.7291
1046.1475
1043.7275
1039.8263
1035.9186
1040.297
1034.7058
1038.8569
1034.0779
1029.5022
1022.0327
1027.9568
1035.288
1045.4594
1055.1632
1048.6044
1045.2867
1041.1641
1019.9614
1024.7138
1030.9407
1036.3716
1041.1654
1038.1769
1042.8613
1038.42
1033.1131
1026.8147
1031.6634
1035.6874
1029.3539
1024.6494
1017.184
1023.2553
1018.5258
1013.9387
1016.4947
1108.9346
1109.3801
1061.7092
1057.4993
1054.9684
1039.0215
1031.3065
1042.0048
1040.1252
1048.8446
1047.7178
1036.2727
1026.8979
1028.434
1037.7787
1040.6462
1050.743
1053.4258
1044.6611
1035.081
1044.3342
1048.6027
1056.2327
1061.0226
102.38359
146.9885
195.05405
243.80733
530.64141
535.72486
248.70488
198.88332
149.83314
104.08963
104.6119
152.09662
202.38035
252.99188
541.01187
545.45144
255.06881
204.05139
153.28058
105.0786
105.36303
154.01738
205.16425
256.47727
549.5354
553.45413
257.78385
206.18749
154.69809
105.65334
105.94517
155.44061
207.32483
259.24577
557.34033
561.242
260.86446
208.58066
156.25841
106.25344
106.5686
157.12589
209.91825
262.59349
565.18531
569.18357
264.39152
211.30793
158.02581
106.88894
107.21225
158.94721
212.73211
266.23593
573.24544
577.3771
268.11849
214.18608
159.88768
107.53871
107.86864
160.84544
215.66685
270.03633
581.58286
585.8662
271.99043
217.17631
161.82201
108.20275
108.54161
162.81712
218.71398
273.9813
590.23019
594.67799
276.01132
220.28273
163.83285
108.88587
109.23595
164.8688
221.88207
278.08106
599.21271
603.83787
280.19301
223.51494
165.92716
109.59249
109.9559
167.00796
225.18146
282.34847
608.55697
613.37367
284.55057
226.88522
168.11389
110.32698
110.70621
169.24506
228.62643
286.80061
618.29198
623.31635
289.10142
230.40809
170.40348
111.09387
111.49004
171.58899
232.23001
291.45391
628.45153
633.70181
293.86065
234.09481
172.80332
111.89532
112.31032
174.04708
236.00345
296.32368
639.07166
644.56548
298.84547
237.95858
175.32205
112.73522
113.17063
176.62907
239.96118
301.42797
650.18741
655.94354
304.07554
242.01535
177.97107
113.61764
114.07727
179.34864
244.12266
306.79122
661.84057
667.88534
309.57881
246.28677
180.76384
114.54923
115.03192
182.2195
248.50946
312.4398
674.08541
680.44426
315.3745
250.78983
183.71439
115.52872
691.7642
289.25026
229.38967
168.99681
109.97278
109.52343
167.66381
227.33607
286.58574
685.31913
679.03386
283.98402
225.33018
166.36219
109.08575
108.65363
165.08968
223.36778
281.43875
672.90284
666.92115
278.95557
221.45443
163.84948
108.23073
107.81932
162.63978
219.5873
276.53246
661.08184
655.37904
274.16891
217.76706
161.46178
107.41845
107.02705
160.31337
215.99068
271.86177
649.80717
644.36117
269.61118
214.25911
159.19506
106.64519
106.27322
158.10591
212.57069
267.41572
639.03642
633.82755
265.27467
210.92592
157.04637
105.91101
105.55681
156.01165
209.31834
263.18152
628.72972
623.73861
261.13413
207.74681
155.00081
105.21006
104.87033
154.01155
206.20771
259.12899
618.85047
614.0616
257.1662
204.7021
153.04459
104.53728
104.21045
152.09771
203.22668
255.24257
609.36807
604.76662
253.35863
201.7827
151.17162
103.88965
103.57409
150.26346
200.3658
251.50999
600.25311
595.82479
249.69753
198.97738
149.37386
103.2634
102.95688
148.50053
197.61377
247.91772
591.47808
587.21005
246.17155
196.27658
147.64416
102.65408
102.35431
146.80296
194.96296
244.45671
583.0172
578.89524
242.77746
193.67685
145.97901
102.05737
101.76299
145.17407
192.42166
241.14047
574.83926
570.84233
239.56942
191.21534
144.39877
101.47325
101.1903
143.66981
190.08595
238.1042
566.89555
562.9803
236.79345
189.07002
143.00981
100.92172
100.66054
142.41678
188.16886
235.64004
559.05773
555.01546
234.43177
187.21434
141.77788
100.39417
100.03858
140.81731
185.77779
232.62095
550.689
545.80236
229.45339
183.27825
139.11542
99.521627
99.234063
136.27179
179.17103
224.41565
540.31791
531.46336
211.72973
168.20278
128.83019
97.064936
98.972716
136.38342
179.31036
224.56873
540.77828
546.16951
229.67382
183.45484
139.20461
99.370005
99.96788
140.93914
185.96825
232.84565
550.98917
555.25374
234.61523
187.36946
141.87738
100.35249
100.63829
142.50118
188.29867
235.79444
559.26386
563.16301
236.92176
189.17687
143.07928
100.9091
101.18405
143.72883
190.17703
238.21469
567.06178
570.99478
239.66597
191.2944
144.45008
101.47115
101.76389
145.22004
192.4925
241.22746
574.98131
579.02916
242.85653
193.74098
146.02075
102.06037
102.35881
146.84152
195.02224
244.53013
583.14457
587.33252
246.23999
196.33169
147.68014
102.65967
102.96332
148.53458
197.666
247.98286
591.59691
595.94102
249.75972
199.02718
149.40649
103.27055
103.58194
150.29534
200.41442
251.57079
600.36788
604.88064
253.41837
201.83058
151.20322
103.89817
104.21969
152.12974
203.27509
255.30299
609.48241
614.17649
257.22697
204.7508
153.07695
104.54705
104.88061
154.04456
206.25738
259.1911
618.96635
623.85559
261.1978
207.79769
155.03467
105.22091
105.56817
156.04691
209.37141
263.24783
628.84802
633.94767
265.34394
210.98168
157.08366
105.92284
106.28534
158.14473
212.62843
267.48723
639.15885
644.48618
269.68154
214.3155
159.23289
106.65686
107.03783
160.34862
216.04391
271.92901
649.93483
655.50991
274.23231
217.81658
161.49418
107.42828
107.82837
162.66954
219.6335
276.59246
661.21655
667.06013
279.0131
221.49829
163.87745
108.23945
108.66269
165.11761
223.41171
281.49635
673.04618
679.1816
284.04519
225.37773
166.39289
109.09598
109.5347
167.6983
227.38869
286.65242
685.47296
691.92605
289.32281
229.44719
169.03481
109.98495
110.45452
170.41369
231.56906
292.07459
698.55359
115.04056
182.17963
248.47238
312.45095
682.03579
675.54299
309.49161
246.1746
180.67396
114.53553
114.04693
179.20887
243.93807
306.61157
669.21868
663.05512
303.80783
241.76212
177.78579
113.57315
113.10861
176.39718
239.63781
301.07072
657.04537
651.18465
298.40214
237.56769
175.04463
112.65401
112.21178
173.72655
235.54951
295.80031
645.46509
639.88034
293.26413
233.58357
172.44414
111.78143
111.36197
171.19495
231.66634
290.78971
634.42473
629.09312
288.37583
229.79746
169.9786
110.95323
110.55462
168.79185
227.97245
286.01793
623.87976
618.7801
283.71482
226.191
167.63453
110.16576
109.78553
166.50355
224.44864
281.46193
613.78964
608.90429
279.25826
222.74535
165.39878
109.41331
109.04851
164.31769
221.07752
277.10036
604.12023
599.43381
274.9883
219.44601
163.26083
108.69093
108.33999
162.22592
217.84735
272.91867
594.8414
590.33961
270.89165
216.28254
161.2135
107.9954
107.65655
160.22131
214.74812
268.904
585.92525
581.59512
266.95615
213.24531
159.25
107.32305
106.99416
158.29717
211.77047
265.0446
577.34624
573.17546
263.17034
210.32517
157.36364
106.66938
106.34787
156.44752
208.9067
261.33125
569.07976
565.05496
259.53213
207.5195
155.55135
106.02935
105.71348
154.6776
206.16807
257.78083
561.09629
557.19794
256.10376
204.87267
153.83854
105.40231
105.09788
153.05378
203.66562
254.5455
553.35284
549.54569
253.1603
202.5886
152.34996
104.80699
104.51818
151.7234
201.64159
251.94931
545.74192
541.82702
250.66331
200.62532
151.04223
104.20161
103.73783
150.02589
199.10628
248.74184
537.66293
533.04649
245.40946
196.48845
148.27763
103.03743
102.26844
145.96998
192.81471
240.65681
528.03278
531.66793
244.65759
195.94496
147.61387
101.54031
104.01688
149.78565
198.7061
248.51782
535.86765
541.21956
253.14797
202.50853
152.16021
104.55818
105.07278
153.3396
204.13475
255.17042
545.60716
549.6911
256.58427
205.25304
154.07524
105.36223
105.65783
154.74983
206.26526
257.87867
553.604
557.48692
259.33568
207.39886
155.48958
105.9517
106.26158
156.30438
208.64987
260.94941
561.38525
565.32555
262.67555
209.98541
157.1705
106.57768
106.89862
158.06815
211.37162
264.47022
569.3212
573.3813
266.31283
212.79463
158.98871
107.22232
107.54905
159.92745
214.24607
268.19315
577.51179
581.71697
270.11005
215.72636
160.8849
107.87931
108.21369
161.86043
217.23432
272.06302
586.00044
590.36497
274.05407
218.7725
162.85593
108.55289
108.89753
163.87133
220.34069
276.08398
594.81395
599.35035
278.15525
221.9418
164.90867
109.24816
109.60518
165.96776
223.57558
280.26872
603.97758
608.69889
282.42683
225.24482
167.05055
109.96908
110.34025
168.1569
226.94929
284.63039
613.51799
618.43837
286.88231
228.69218
169.28901
110.71926
111.10652
170.44699
230.47364
289.18384
623.46402
628.59893
291.53795
232.29692
171.6332
111.50266
111.90811
172.84774
234.16231
293.94606
633.84759
639.21501
296.41144
236.07315
174.09293
112.32347
112.74917
175.36936
238.03037
298.9361
644.70687
650.32927
301.52349
240.03748
176.67963
113.18585
113.63382
178.02383
242.09491
304.17525
656.08858
661.99127
306.89405
244.20522
179.40353
114.09352
114.56516
180.81972
246.37001
309.68267
668.04403
674.25337
312.54648
248.59468
182.27667
115.04996
115.54966
183.77635
250.88137
315.48857
680.6257
687.16731
318.51098
253.23121
185.31843
116.06426
115.03605
182.16652
248.45291
312.42674
681.99409
675.50521
309.46913
246.15654
180.66178
114.53123
114.04282
179.19713
243.92078
306.59009
669.18397
663.02253
303.78708
241.74545
177.77445
113.56936
113.10509
176.3861
239.6214
301.05026
657.01417
651.15385
298.38203
237.55163
175.03389
112.65082
112.20886
173.71597
235.53356
295.78024
645.4339
639.84845
293.2438
233.56747
172.43356
111.77875
111.35938
171.18415
231.64989
290.76901
634.39215
629.05999
288.35481
229.78067
169.9675
110.95056
110.55194
168.78084
227.95583
285.99725
623.84678
618.74776
283.69479
226.17481
167.62375
110.1631
109.78293
166.49319
224.43314
281.4428
613.75825
608.8741
279.2402
222.73067
165.38893
109.41078
109.04612
164.30846
221.06379
277.08346
604.09122
599.40603
274.97241
219.43312
163.25217
108.68869
108.33791
162.21776
217.83518
272.90362
594.8145
590.31343
270.87721
216.27085
161.20567
107.99343
107.6547
160.21383
214.73686
268.89004
585.89952
581.56995
266.9424
213.23421
159.24263
107.32131
106.99253
158.28985
211.75938
265.03086
577.32126
573.15052
263.15656
210.31401
157.35629
106.66785
106.34644
156.44008
208.89534
261.31722
569.05484
565.02985
259.51769
207.50775
155.54367
106.02799
105.71216
154.66962
206.15589
257.76594
561.07106
557.17246
256.08832
204.86004
153.83033
105.40102
105.09672
153.04572
203.65298
254.52993
553.32764
549.52098
253.14433
202.57579
152.34193
104.80597
104.51735
151.71632
201.6298
251.93392
545.71897
541.80911
250.64776
200.61392
151.03636
104.20206
103.73153
150.01253
199.08919
248.72074
537.65535
533.05309
245.37511
196.46678
148.27874
103.04257
102.16778
145.91169
192.79937
240.64657
528.2158
541.48475
225.38618
180.1916
136.9754
98.427662
99.354242
139.21788
183.3245
229.49287
546.09834
550.94761
232.8422
185.96681
140.9269
99.935976
100.35283
141.86812
187.34397
234.58242
555.19201
559.19361
235.75708
188.2683
142.48148
100.63503
100.90782
143.05863
189.14379
236.88105
563.08849
566.98547
238.17494
190.14554
143.70864
101.18216
101.46892
144.43012
191.26321
239.62694
570.919
574.9062
241.19013
192.46327
145.20124
101.76102
102.05696
146.00192
193.71173
242.81975
578.95477
583.07099
244.49484
194.99474
146.8238
102.35501
102.65549
147.66217
196.3039
246.20495
587.25953
591.52407
247.9489
197.63966
148.51759
102.95887
103.26579
149.38911
199.00035
249.72574
595.8681
600.29454
251.53747
200.38862
150.27866
103.57692
103.89275
151.1857
201.80361
253.38419
604.80661
609.40729
255.26846
203.24828
152.11232
104.21389
104.54068
153.05803
204.72188
257.19049
614.09991
618.88783
259.15292
206.22744
154.02491
104.87367
105.21324
155.01281
207.76462
261.15643
623.77482
628.7646
263.20383
209.33651
156.02376
105.55986
105.91382
157.05803
210.94342
265.29651
633.8614
639.06966
267.43774
212.58879
158.1181
106.27588
106.64716
159.2048
214.27401
269.63028
644.39421
649.84034
271.87832
216.00337
160.32131
107.0284
107.41928
161.46746
217.77683
274.18272
655.41305
661.1172
276.54552
219.59669
162.64515
107.82013
108.23181
163.85442
221.46305
278.96796
666.95796
672.94077
281.45218
223.37781
165.09569
108.65531
109.08799
166.36927
225.34153
283.99888
679.07274
685.35945
286.60408
227.3511
167.67382
109.52631
109.97633
169.00865
229.40673
289.27102
691.80693
698.42706
292.01889
231.52572
170.38576
110.44563
686.98237
318.4069
253.1486
185.26364
116.0474
115.53169
183.72183
250.79969
315.38578
680.4504
674.08851
312.45084
248.51924
182.22666
115.03465
114.55137
180.76933
246.29453
309.58794
667.88596
661.8403
306.79883
244.12927
179.35321
114.07887
113.61831
177.97329
242.01887
304.08005
655.94437
650.19051
301.43021
239.96287
176.6298
113.17037
112.73412
175.32098
237.95781
298.8453
644.57227
639.08345
296.32375
236.00312
174.04628
112.3089
111.89388
172.80275
234.09474
293.8614
633.71827
628.47153
291.45762
232.23289
171.59061
111.48909
111.09373
170.40675
230.41299
289.10764
623.33826
618.31414
286.81052
228.63507
169.25117
110.70716
110.32862
168.12088
226.89485
284.56188
613.39523
608.57742
282.36131
225.19272
167.01604
109.95783
109.59424
165.93432
223.52499
280.20501
603.85726
599.23117
278.0933
221.89261
164.87613
109.23749
108.88703
163.83927
220.29205
276.02265
594.69596
590.24823
273.99355
218.72446
162.82421
108.54251
108.2033
161.8287
217.1862
272.00247
585.88491
581.60278
270.05009
215.67866
160.85338
107.86895
107.53869
159.89585
214.19815
268.13302
577.39893
573.26978
266.25329
212.74709
158.95729
107.21195
106.88818
158.03676
211.32404
264.41066
569.21126
565.21734
262.61689
209.93844
157.13946
106.56724
106.25114
156.27387
208.60345
260.89128
561.27965
557.38462
259.27985
207.35443
155.46053
105.94149
105.64817
154.72412
206.22504
257.82719
553.50662
549.60105
256.53986
205.21887
154.05422
105.35331
105.06395
153.33197
204.12027
255.14851
545.53376
541.16308
253.12215
202.48398
152.14683
104.54527
103.97711
149.85131
198.80026
248.61581
535.86888
531.66051
244.72315
196.02375
147.70621
101.6101
102.27104
147.16596
195.34111
244.13553
531.11763
536.06004
248.86921
199.02169
149.91434
104.0002
104.56065
152.16179
202.48774
253.12339
541.279
545.67129
255.19032
204.15012
153.3423
105.05376
105.35292
154.07944
205.26027
256.59412
549.72798
553.62559
257.89176
206.27635
154.75609
105.65138
105.94802
155.49523
207.4074
259.34562
557.49812
561.38992
260.9571
208.65706
156.3091
106.25903
106.57584
157.17324
209.98936
262.6799
565.32594
569.31851
264.47303
211.37471
158.07031
106.89719
107.22111
158.98917
212.79511
266.31308
573.37644
577.50536
268.19273
214.24639
159.92776
107.54807
107.87838
160.88405
215.72492
270.10807
581.70945
585.99218
272.06094
217.23315
161.85974
108.21289
108.55217
162.85424
218.76991
274.05087
590.35638
594.80532
276.08104
220.33865
163.86998
108.8969
109.24753
164.90646
221.93861
278.15157
599.34209
603.97008
280.26557
223.57308
165.96597
109.60468
109.96868
167.0482
225.24158
282.42339
608.69282
613.51402
284.62804
226.94726
168.15537
110.3401
110.71917
169.28707
228.68962
286.87993
618.43744
623.46714
289.18197
230.47176
170.4455
111.1064
111.50208
171.63049
232.2934
291.53471
628.60713
633.86143
293.94145
234.15778
172.84429
111.90707
112.32186
174.08739
236.06564
296.40366
639.23378
644.72916
298.92518
238.02071
175.36243
112.7469
113.18276
176.67043
240.02446
301.50867
650.35354
656.11417
304.15904
242.08132
178.01452
113.63047
114.09061
179.39431
244.19158
306.87798
662.01605
668.06637
309.66822
246.35787
180.81118
114.56282
115.04607
182.2682
248.5822
312.53132
674.27133
680.63503
315.468
250.86368
183.76341
115.54322
116.05954
185.30688
253.21547
318.49303
687.17013
1179.2523
1179.3625
1179.2489
1179.3551
1163.9527
1164.2503
1164.7297
1204.7434
1203.917
1164.2526
1162.9586
1201.7985
1203.9147
1204.3149
1192.3766
1173.7485
1153.3774
1148.186
1168.1735
1163.2617
1171.4071
1151.0519
1142.7163
1136.7103
1148.7167
1162.1827
1203.0908
1189.0637
1190.8034
1212.1627
1213.7641
1209.5614
1188.4575
1184.3872
1205.9892
1201.8097
1210.7259
1209.5489
1187.7542
1167.748
1169.3586
1157.8359
1154.2809
1132.8322
1147.0098
1128.2428
1108.9806
1110.9847
1096.3431
1116.1735
1111.9986
1091.9352
1072.8232
1065.5878
1072.4319
1091.4145
1091.3752
1090.2431
1108.9255
1109.3689
1094.5146
1093.0228
528.05593
240.17318
192.41425
145.66422
102.63146
103.20599
148.08654
196.18305
245.03645
532.99123
537.59367
248.4869
198.88635
149.87718
103.81075
104.24651
150.94379
200.48099
250.50246
541.77414
545.71456
251.85342
201.55265
151.66104
104.54649
104.82683
152.30781
202.52914
253.09896
549.5392
553.36389
254.50797
203.62772
153.02621
105.11215
105.41314
153.81955
204.84706
256.08032
557.22121
561.1295
257.76952
206.15383
154.66634
105.72219
106.03668
155.54474
207.51182
259.52851
565.09582
569.1264
261.3349
208.906
156.44566
106.35435
106.67523
157.36418
210.32788
263.17819
573.22656
577.40048
265.05692
211.77764
158.30078
106.99965
107.32821
159.25473
213.25407
266.97063
581.65164
585.98335
268.92132
214.75986
160.22808
107.66161
108.00036
161.22069
216.29481
270.90993
590.39853
594.90053
272.93885
217.86183
162.23467
108.34505
108.6961
163.26995
219.46089
275.00924
599.49269
604.17843
277.12356
221.09494
164.32869
109.05407
109.41933
165.41087
222.76404
279.28307
608.96139
613.84532
281.49021
224.471
166.51843
109.79234
110.17346
167.65146
226.21595
283.74626
618.83425
623.93224
286.05399
228.00196
168.81217
110.56327
110.96209
170.00066
229.82931
288.41475
629.14363
634.47325
290.83137
231.70093
171.219
111.37046
111.78873
172.4675
233.6174
293.30546
639.92635
645.50849
295.83993
235.58172
173.7483
112.21755
112.65735
175.06195
237.59486
298.43693
651.22571
657.08426
301.09952
239.65983
176.41058
113.10874
113.57221
177.79493
241.77785
303.82996
663.09083
669.25218
306.63326
243.95359
179.21841
114.0488
114.53929
180.68213
246.18886
309.51243
675.57549
682.06847
312.47234
248.48806
182.18916
115.04461
114.52755
180.64723
246.13414
309.44055
675.43474
669.11612
306.56726
243.90383
179.18699
114.04026
113.56667
177.76537
241.73018
303.76657
662.9581
656.95299
301.02944
239.60554
176.37583
113.10169
112.64656
175.02078
237.53233
298.35796
651.09581
645.37919
295.75308
235.51165
173.70087
112.20379
111.77268
172.41504
233.54094
293.21173
639.79666
634.34209
290.73319
231.62034
171.1634
111.35262
110.94339
169.94417
229.74725
288.3148
629.01022
623.797
285.95714
227.92294
168.75834
110.54522
110.15676
167.60223
226.14262
283.65555
618.6987
613.7098
281.40643
224.40367
166.47352
109.77682
109.40471
165.36854
222.70067
279.20401
608.82523
604.0412
277.0486
221.03501
164.28876
109.04051
108.68331
163.23168
219.40302
274.93649
599.35425
594.7606
272.86752
217.8052
162.19726
108.33273
107.98819
161.18311
216.2378
270.83806
590.2575
585.8409
268.8487
214.70215
160.18995
107.64944
107.3159
159.21557
213.19483
266.8962
581.50784
577.25526
264.98127
211.71722
158.26071
106.9872
106.66256
157.32288
210.2656
263.10038
573.07968
568.97815
261.25568
208.84239
156.40335
106.34158
106.0238
155.50095
207.44598
259.44671
564.94577
560.9774
257.68555
206.08599
154.6211
105.7094
105.40054
153.77236
204.77633
255.99302
557.0664
553.20494
254.4178
203.55441
152.97722
105.1005
104.817
152.25686
202.4532
253.00586
549.37437
545.53682
251.76101
201.47657
151.60993
104.54271
104.25252
150.89619
200.41413
250.42464
541.57207
537.31865
248.4327
198.82777
149.82935
103.8423
103.27539
148.07078
196.1934
245.09192
532.59222
527.27831
240.2773
192.38184
145.56619
102.76669
101.36913
141.2535
185.68516
232.1459
520.3148
527.38845
250.41395
200.52415
151.34373
107.40561
101.77363
147.94702
196.36218
245.08147
532.15347
535.89189
248.46041
198.69258
149.82728
104.16158
104.62233
152.12614
202.43655
253.05282
541.20333
545.5618
255.07948
204.0596
153.29907
105.12219
105.39774
154.04269
205.19691
256.5191
549.64959
553.56774
257.8255
206.21852
154.72127
105.68363
105.97038
155.46507
207.35973
259.29225
557.45858
561.36368
260.91343
208.61747
156.28353
106.2751
106.58755
157.15213
209.95737
262.64521
565.31029
569.3112
264.44561
211.34898
158.05307
106.90595
107.2278
158.97534
212.7748
266.29195
573.37587
577.51006
268.17628
214.23021
159.91656
107.5532
107.8824
160.87508
215.71226
270.09566
581.71806
586.0036
272.05154
217.2232
161.85254
108.21609
108.55477
162.8487
218.76249
274.04435
590.37001
594.82055
276.07646
220.33304
163.86567
108.89907
109.24944
164.90333
221.93478
278.14896
599.35818
603.98629
280.26443
223.5707
165.96388
109.60642
109.97034
167.04716
225.24066
282.4238
608.70841
613.52794
284.62951
226.94743
168.15513
110.3417
110.72085
169.28767
228.69091
286.8825
618.44856
623.47403
289.18525
230.47394
170.44684
111.10825
111.50425
171.63269
232.29673
291.53913
628.60851
633.85648
293.94688
234.1623
172.84737
111.90939
112.32404
174.09107
236.07109
296.41013
639.22289
644.7129
298.9324
238.02679
175.36657
112.74905
113.18492
176.6746
240.03064
301.51604
650.33205
656.08621
304.16467
242.08626
178.01773
113.63237
114.09219
179.39731
244.19539
306.88113
661.98164
668.02494
309.6697
246.36242
180.81676
114.56551
115.05373
182.27899
248.58988
312.53344
674.22303
680.58295
315.47558
250.88188
183.79018
115.55858
116.0779
185.35305
253.23509
318.49196
687.11279
114.52813
180.64577
246.13481
309.44412
675.46342
669.13878
306.55711
243.89253
179.17694
114.03614
113.55845
177.75014
241.71165
303.74772
662.9763
656.96994
301.01597
239.59291
176.36587
113.09488
112.6442
175.01938
237.53038
298.35584
651.1123
645.39597
295.76417
235.52197
173.7093
112.20587
111.77879
172.43273
233.56318
293.23593
639.81449
634.36193
290.76963
231.65343
171.18901
111.36257
110.95702
169.97401
229.78678
288.35918
629.03171
623.81742
285.99585
227.95607
168.7824
110.55786
110.16471
167.61705
226.16397
283.68181
618.71711
613.72659
281.41959
224.41309
166.47892
109.77921
109.40506
165.37111
222.70617
279.21239
608.8419
604.05757
277.0554
221.03925
164.29047
109.04094
108.68404
163.23384
219.40733
274.94296
599.37032
594.77605
272.87394
217.80985
162.20008
108.33388
107.98988
161.18644
216.24276
270.84444
590.27151
585.85346
268.85454
214.70687
160.19332
107.65158
107.31839
159.21863
213.19891
266.90121
581.51883
577.26462
264.98501
211.72027
158.26311
106.98995
106.66568
157.32462
210.26762
263.10292
573.08751
568.98416
261.25663
208.84306
156.40421
106.34511
106.02788
155.50101
207.44536
259.44618
564.94975
560.97932
257.68341
206.08402
154.62033
105.71416
105.40634
153.77101
204.77317
255.98939
557.06598
553.20254
254.41248
203.5499
152.97525
105.10771
104.82626
152.25484
202.4478
252.99914
549.36993
545.53169
251.7519
201.46922
151.60696
104.55427
104.26796
150.89484
200.40735
250.41568
541.57129
537.33151
248.43231
198.82907
149.83563
103.86333
103.3032
148.09526
196.21951
245.12144
532.63808
527.39925
240.34951
192.43268
145.60366
102.78577
101.4339
141.67798
186.27702
232.8126
520.67452
532.1437
213.99891
170.21146
130.33514
97.992174
104.8467
145.43576
191.60973
239.28699
525.18635
526.6349
240.27154
192.56614
146.27849
104.82808
102.46135
145.62269
192.40509
240.18851
528.19049
533.01174
245.0676
196.21117
148.11392
103.17938
103.78038
149.87012
198.89172
248.49972
537.619
541.80483
250.52154
200.49595
150.95051
104.22805
104.53158
151.66322
201.56057
251.86492
545.73737
549.55535
253.10958
202.53778
152.31193
104.8165
105.10467
153.02929
203.63406
254.51611
553.37454
557.22863
256.08771
204.85345
153.82299
105.4077
105.71813
154.6688
206.15838
257.77518
561.13471
565.09943
259.53375
207.51657
155.5475
106.03363
106.35195
156.44746
208.90912
261.33872
569.12882
573.22789
263.18157
210.33109
157.36613
106.6733
106.99802
158.30162
211.77921
265.05893
577.40096
581.65148
266.97239
213.25585
159.25576
107.32687
107.66038
160.22814
214.76022
268.92194
585.98259
590.39756
270.91046
216.2955
161.22102
107.9993
108.34407
162.2341
217.86127
272.93846
594.8993
599.49135
275.00888
219.46076
163.26973
108.69528
109.05326
164.32757
221.09358
277.1223
604.17716
608.96054
279.28178
222.763
165.40997
109.41862
109.79163
166.51672
224.4688
281.4881
613.84506
618.83479
283.74437
226.21431
167.65019
110.1729
110.56278
168.81048
227.9997
286.05179
623.93395
629.14697
288.41337
229.8281
169.99976
110.9618
111.37026
171.21806
231.69968
290.83028
634.47861
639.93411
293.30574
233.61764
172.46759
111.78873
112.21758
173.74864
235.58244
295.84118
645.51896
651.23895
298.43975
237.59708
175.06327
112.65741
113.10867
176.41182
239.66227
301.10317
657.1003
663.10953
303.83533
241.78178
177.79706
113.57216
114.04887
179.22088
243.95815
306.63978
669.27307
675.59804
309.52139
246.19577
180.68637
114.5399
115.04558
182.19411
248.49592
312.48256
682.09233
698.58534
292.10158
231.59081
170.42826
110.46118
109.99132
169.04554
229.4644
289.34593
691.95441
685.49555
286.66414
227.39572
167.70132
109.53492
109.09123
166.39366
225.38143
284.05239
679.20168
673.06582
281.50855
223.42059
165.12198
108.65922
108.23868
163.88417
221.51025
279.02924
667.08005
661.23746
276.61216
219.64915
162.67948
107.82929
107.43017
161.50502
217.83305
274.25298
655.5323
649.95909
271.95079
216.06183
160.36065
107.04085
106.66061
159.24391
214.33193
269.70197
644.5121
639.18624
267.50601
212.64369
158.15497
106.28917
105.92601
157.09161
210.99375
265.35951
633.97658
628.87846
263.26211
209.38268
156.05424
105.57091
105.2233
155.04038
207.80679
261.21017
623.88745
618.99937
259.20352
206.26682
154.05043
104.88298
104.54939
153.08197
204.759
257.23843
614.21021
609.51613
255.31474
203.28393
152.13517
104.22215
103.90067
151.20766
201.8379
253.42884
604.91443
600.40095
251.58121
200.42211
150.29999
103.58462
103.27334
149.40976
199.03277
249.76816
595.97303
591.6272
247.99042
197.67131
148.53767
102.96641
102.66308
147.68137
196.3341
246.24467
587.36033
583.16921
244.53292
195.02353
146.84199
102.36278
102.06502
146.01853
193.73808
242.85489
579.04956
574.99626
241.2222
192.48701
145.21605
101.76969
101.47876
144.4423
191.28274
239.65385
571.00313
567.06117
238.19586
190.16019
143.71749
101.19405
100.92417
143.0631
189.15077
236.89188
563.1514
559.24012
235.75172
188.2625
142.4771
100.65689
100.38707
141.84479
187.30537
234.53683
555.21672
550.97183
232.73723
185.8743
140.85809
99.967713
99.46617
139.12152
183.15918
229.29792
546.10358
541.50406
225.15313
179.97673
136.79354
98.502448
533.11794
211.8704
168.41112
128.8
96.554782
99.199744
136.24802
179.02167
224.19542
541.04169
546.20059
229.39997
183.24694
139.09287
99.496029
100.04545
140.83788
185.79699
232.63427
550.92197
555.18715
234.47445
187.2498
141.80248
100.40605
100.67518
142.44958
188.21831
235.70283
559.21614
563.13458
236.85884
189.12011
143.04222
100.93562
101.20315
143.70171
190.13612
238.17036
567.05007
570.99595
239.63462
191.26472
144.43013
101.48537
101.77464
145.20549
192.47127
241.20582
574.99254
579.0481
242.84249
193.72634
146.01046
102.06875
102.36557
146.83465
195.01282
244.52205
583.16977
587.36243
246.23683
196.32652
147.676
102.66528
102.96814
148.53271
197.66418
247.9834
591.63041
595.97712
249.76367
199.02832
149.40658
103.27485
103.58586
150.29699
200.41782
251.57723
600.40592
604.91963
253.42685
201.83583
151.20615
103.90182
104.22313
152.13377
203.28188
255.31309
609.52175
614.2155
257.23876
204.75912
153.08203
104.55037
104.88386
154.05065
206.26704
259.20429
619.00443
623.8922
261.21267
207.80887
155.04186
105.22416
105.57155
156.05538
209.38422
263.26443
628.8826
633.97946
265.36265
210.99638
157.09355
105.92659
106.28952
158.15619
212.64521
267.50822
639.18734
644.51078
269.70379
214.33356
159.2453
106.66082
107.04063
160.36049
216.06109
271.9501
649.9547
655.52422
274.25015
217.83095
161.504
107.4295
107.82781
162.67594
219.64345
276.60531
661.22486
667.06236
279.01896
221.502
163.87876
108.2363
108.6556
165.11332
223.40785
281.49338
673.04287
679.173
284.03299
225.36533
166.3827
109.08655
109.5295
167.6872
227.37513
286.63977
685.46021
691.91196
289.31814
229.44123
169.02947
109.98533
110.45458
170.41052
231.56505
292.07048
698.53605
116.05743
185.29773
253.20085