/*--------------------------------*- C++ -*----------------------------------*\
  =========                 |
  \\      /  F ield         | OpenFOAM: The Open Source CFD Toolbox
   \\    /   O peration     | Website:  https://openfoam.org
    \\  /    A nd           | Version:  7
     \\/     M anipulation  |
\*---------------------------------------------------------------------------*/
FoamFile
{
    version     2.0;
    format      ascii;
    class       volScalarField;
    location    "410";
    object      omega;
}
// * * * * * * * * * * * * * * * * * * * * * * * * * * * * * * * * * * * * * //

dimensions      [0 0 -1 0 0 0 0];

internalField   nonuniform List<scalar> 
25201
(
162.87559
163.08306
162.87561
163.08315
163.43055
161.76842
161.4654
165.84607
165.98782
167.11024
165.98784
161.76846
162.58235
171.90471
174.47257
161.86912
163.68425
165.32367
165.6857
171.20698
167.23857
168.38192
166.80652
169.51507
168.54409
172.2475
170.14776
165.32219
166.53301
171.15855
170.12312
168.73559
177.72155
175.98298
173.77752
174.46332
169.95762
171.3857
176.59675
178.35244
172.47683
173.08324
171.75857
178.65133
179.2536
179.37234
173.81173
167.61792
163.52954
162.58213
166.70729
167.54753
169.50737
168.22749
166.89667
165.31649
163.3154
164.98534
166.76842
171.56149
169.32879
166.55179
168.30013
169.59649
171.54728
168.98288
170.25127
174.62836
173.07367
176.92671
175.45642
172.73583
166.51409
168.14952
169.19937
178.14973
175.40499
173.84653
172.06655
170.77802
169.06339
167.57152
170.01775
171.05006
172.70038
170.51611
172.2762
171.89787
174.4545
173.06802
175.43704
177.32358
176.84536
176.11779
175.8555
174.1089
173.56747
175.30597
178.55103
176.30056
176.78996
178.87025
179.07752
176.9911
177.46748
179.15405
183.04593
180.51742
178.55202
177.61649
179.39155
179.79736
182.52321
182.24358
186.47466
183.08445
183.55247
186.73052
186.94506
182.78425
180.06377
183.674
184.13568
187.1865
192.02766
187.9422
184.56832
178.55852
173.07466
176.60718
178.36411
179.26683
179.37899
178.56569
176.78322
174.86121
172.27926
170.02134
166.55288
163.31602
165.31675
168.3006
171.56299
169.33044
164.98678
166.76929
168.22839
166.897
166.70752
168.98321
171.54775
169.59717
173.07494
174.63024
170.25239
171.48216
167.54818
163.53024
166.51611
168.15077
175.45893
172.73906
170.51797
169.0675
167.57466
170.78321
172.07248
173.85012
177.05258
175.45848
172.70265
171.05169
174.14072
171.2098
172.62682
174.65092
174.14034
173.36357
178.69013
179.39705
184.62525
182.12219
180.9229
183.5074
184.25357
187.26216
184.72886
184.19882
187.32198
192.17378
188.00635
184.84883
178.69341
173.36635
177.32728
175.44486
174.46792
186.96265
183.68831
180.07646
177.0039
177.4739
179.16116
176.85296
176.13161
179.09347
182.79861
183.05449
180.52457
184.1418
187.19472
192.03441
187.94736
187.57097
187.45918
183.86907
163.06647
162.82586
159.2582
165.30637
166.52769
171.75479
175.96772
170.10964
171.15039
172.46721
173.08073
179.25043
178.64999
177.71352
178.34355
176.58174
171.37186
169.93761
168.71726
173.75749
174.44351
171.87104
168.35736
163.65882
93831.47
29889.91
16572.877
11998.722
1952.4782
1927.5831
11781.952
16292.388
29420.93
92830.508
92044.301
28998.157
16071.675
11630.362
1899.8275
1887.9494
11584.563
15995.667
28846.955
91818.726
91803.96
28808.936
15985.191
11586.826
1884.0078
1884.7943
11606.322
16001.014
28821.218
91894.389
92012.83
28848.395
16024.83
11629.982
1887.809
1891.9637
11653.422
16050.175
28880.141
92144.428
92280.319
28913.341
16076.479
11676.964
1896.714
1901.7774
11700.221
16102.913
28947.471
92418.668
92558.199
28982.179
16130.146
11724.051
1907.0372
1912.4212
11747.967
16157.579
29017.592
92698.935
92840.938
29053.66
16185.87
11772.611
1917.9202
1923.5129
11797.45
16214.445
29090.534
92984.519
93129.861
29128.184
16243.921
11823.048
1929.2092
1934.997
11848.894
16273.736
29166.716
93277.289
93426.912
29206.151
16304.485
11875.512
1940.8862
1946.8665
11902.436
16335.643
29246.554
93578.958
93733.58
29287.945
16367.772
11930.15
1952.9498
1959.131
11958.23
16400.38
29330.421
93891.048
94051.72
29374.006
16434.012
11987.133
1965.4205
1971.8125
12016.494
16468.243
29418.84
94215.814
94383.439
29464.969
16503.599
12046.75
1978.3154
1984.9268
12077.566
16539.697
29512.577
94554.915
94730.521
29561.591
16576.965
12109.304
1991.6562
1998.5069
12141.686
16615.078
29612.195
94910.256
95094.15
29664.394
16654.455
12175.051
2005.4977
2012.6154
12209.09
16694.729
29718.287
95282.429
95475.297
29773.735
16736.204
12244.057
2019.8504
2027.2021
12279.7
16778.515
29830.586
95672.697
95874.174
29888.983
16822.149
12316.421
2034.6867
2042.3537
12354.276
16867.409
29950.51
96080.905
1851.8797
12557.095
16934.856
29896.697
95423.74
95228.68
29839.384
16891.026
12519.395
1844.9007
1838.1165
12483.175
16849.402
29786.347
95038.137
94849.314
29735.541
16809.732
12448.539
1831.5224
1825.03
12414.463
16770.561
29685.17
94664.114
94483.36
29635.911
16732.343
12381.193
1818.6304
1812.3225
12348.47
16694.866
29588.169
94306.816
94134.277
29541.884
16658.585
12316.699
1806.1144
1799.9947
12285.449
16622.992
29496.928
93965.855
93801.868
29453.157
16588.433
12255.044
1793.9618
1788.0262
12225.127
16554.552
29410.818
93642.24
93486.089
29370.029
16521.957
12196.232
1782.206
1776.4882
12167.829
16490.022
29330.545
93333.032
93182.831
29292.089
16459.115
12140.302
1770.8669
1765.3285
12113.083
16428.628
29254.622
93035.257
92890.058
29218.048
16399.101
12086.692
1759.8832
1754.5225
12060.553
16369.942
29182.411
92747.219
92606.427
29147.592
16341.719
12035.237
1749.2551
1744.0696
12010.115
16313.801
29113.645
92467.59
92330.343
29080.384
16286.791
11985.803
1738.978
1733.9721
11961.63
16260.03
29047.94
92194.561
92059.995
29016.077
16234.145
11938.249
1729.0713
1724.2829
11914.916
16208.451
28984.958
91926.575
91794.373
28954.449
16183.643
11892.287
1719.6625
1715.2987
11869.482
16159.113
28925.111
91664.819
91540.427
28897.508
16135.889
11847.179
1711.4029
1708.4018
11825.413
16115.178
28875.993
91430.467
91355.233
28870.915
16103.61
11808.879
1707.1737
1709.6922
11810.819
16120.264
28919.163
91385.446
91660.191
29082.485
16201.417
11859.57
1718.7898
1736.8131
11988.515
16388.004
29432.184
92400.781
93893.974
29949.466
16649.302
12179.115
1759.8228
1853.3311
12882.92
17725.538
31958.441
95290.515
93811.78
29928.578
16635.206
12171.036
1758.663
1734.9709
11984.098
16379.872
29412.026
92343.862
91633.655
29067.972
16195.021
11855.727
1717.2844
1708.5535
11808.072
16115.681
28908.364
91369.128
91346.236
28863.002
16100.103
11806.689
1706.2228
1707.6025
11823.734
16112.451
28869.86
91425.122
91537.733
28892.847
16133.8
11845.869
1710.7329
1714.7457
11868.523
16157.526
28921.523
91663.91
91794.77
28951.726
16182.451
11891.555
1719.2038
1723.9034
11914.414
16207.573
28982.877
91927.948
92062.045
29014.533
16233.521
11937.888
1728.7575
1733.7141
11961.424
16259.598
29046.766
92197.115
92333.266
29079.582
16286.537
11985.693
1738.7665
1743.9
12010.126
16313.687
29113.083
92470.83
92610.03
29147.307
16341.742
12035.324
1749.1216
1754.4228
12060.749
16370.085
29182.341
92751.191
92894.505
29218.215
16399.375
12086.959
1759.8123
1765.2839
12113.461
16429.031
29255.012
93040.227
93188.481
29292.774
16459.681
12140.776
1770.8465
1776.4955
12168.453
16490.781
29331.567
93339.576
93493.589
29371.457
16522.944
12196.99
1782.2392
1788.0751
12225.989
16555.683
29412.529
93650.743
93811.223
29455
16589.617
12255.925
1794.0115
1800.0375
12286.367
16624.21
29498.854
93975.545
94143.859
29543.937
16659.88
12317.667
1806.1517
1812.3538
12349.491
16696.195
29590.253
94316.037
94492.025
29638.035
16733.717
12382.252
1818.6558
1825.0547
12415.576
16771.962
29687.29
94672.219
94857.079
29737.692
16811.176
12449.686
1831.5535
1838.1618
12484.331
16850.834
29788.45
95045.768
95236.045
29841.254
16892.347
12520.473
1844.9442
1851.9145
12558.089
16936.021
29898.173
95430.769
95633.498
29957.254
16980.923
12596.596
1858.9589
96185.54
29987.412
16911.576
12411.132
2037.9942
2030.1809
12372.28
16865.236
29924.698
95974.082
95768.988
29864.884
16820.65
12334.687
2022.5247
2015.0153
12298.003
16777.259
29807.15
95569.747
95374.129
29751.987
16735.721
12262.734
2007.7005
2000.5062
12228.194
16695.022
29697.987
95182.455
94995.685
29645.336
16655.414
12194.541
1993.4278
1986.4646
12161.506
16616.65
29594.322
94813.591
94635.817
29544.86
16579.099
12129.429
1979.6265
1972.8999
12097.911
16542.296
29496.803
94462.235
94292.58
29450.119
16506.621
12067.299
1966.2916
1959.7889
12037.173
16471.614
29404.776
94126.756
93964.307
29360.75
16437.721
12007.952
1953.4041
1947.1219
11979.171
16404.434
29317.945
93804.972
93648.536
29276.217
16372.161
11951.241
1940.9485
1934.8678
11923.656
16340.374
29235.558
93494.944
93343.931
29195.864
16309.545
11896.884
1928.8901
1922.9992
11870.391
16279.127
29157.153
93195.475
93049.251
29119.304
16249.63
11844.694
1917.209
1911.5029
11819.211
16220.471
29082.333
92905.104
92762.73
29046.09
16192.189
11794.508
1905.8976
1900.3775
11769.95
16164.167
29010.597
92621.903
92482.308
28975.687
16136.967
11746.136
1894.9676
1889.6697
11722.342
16109.93
28941.405
92343.852
92206.397
28907.568
16083.627
11699.118
1884.555
1879.7229
11675.518
16057.397
28874.54
92071.194
91940.25
28842.722
16032.021
11651.977
1875.4389
1872.2191
11628.344
16008.51
28815.997
91821.893
91735.667
28805.573
15993.78
11609.441
1871.1457
1874.6693
11610.296
16008.99
28850.669
91752.755
92023.227
29015.001
16092.174
11661.298
1885.7579
1906.2208
11799.646
16288.303
29375.981
92809.473
94390.362
29922.15
16568.253
12007.797
1930.6886
1948.6078
12004.12
16568.97
29819.523
93393.568
92754.263
29450.569
16307.806
11791.067
1929.1931
1899.2247
11626.706
16065.605
28983.66
91997.266
91804.621
28842.394
15993.839
11583.489
1887.74
1883.7078
11585.627
15983.289
28804.955
91798.408
91894.44
28819.034
16000.339
11606.058
1884.5604
1887.5953
11629.601
16024.152
28846.998
92015.14
92147.865
28879.155
16050.061
11653.524
1891.7889
1896.5622
11676.83
16076.169
28912.709
92284.27
92422.915
28947.026
16103.053
11700.483
1901.6643
1906.9434
11724.079
16130.069
28981.988
92562.61
92703.402
29017.539
16157.91
11748.352
1912.3563
1917.8695
11772.777
16185.991
29053.81
92845.544
92989.246
29090.78
16214.936
11797.943
1923.4864
1929.1945
11823.335
16244.203
29128.602
93134.74
93282.366
29167.25
16274.381
11849.49
1935.003
1940.9025
11875.924
16304.938
29206.843
93432.309
93584.747
29247.364
16336.439
11903.133
1946.9039
1952.9997
11930.676
16368.388
29288.93
93739.834
93897.663
29331.514
16401.319
11959.014
1959.2003
1965.5017
11987.743
16434.768
29375.233
94058.493
94222.353
29420.078
16469.242
12017.29
1971.9159
1978.439
12047.288
16504.3
29466.117
94389.475
94560.034
29513.421
16540.451
12078.152
1985.0831
1991.8445
12109.577
16577.334
29562.14
94734.329
94912.578
29612.34
16615.424
12141.946
1998.7288
2005.7264
12174.975
16654.366
29664.116
95095.185
95282.512
29717.594
16694.627
12209.032
2012.8413
2020.0665
12243.885
16735.924
29772.926
95474.847
95672.299
29830.123
16778.638
12279.838
2027.4091
2034.8716
12316.634
16822.452
29889.308
95875.298
96084.295
29950.19
16867.57
12354.467
2042.461
2050.2041
12393.318
16914.042
30013.483
96299.064
96184.474
29987.04
16911.297
12410.914
2037.9527
2030.1263
12372.09
16864.988
29924.368
95973.415
95768.702
29864.673
16820.469
12334.545
2022.4632
2014.9545
12297.917
16777.158
29807.096
95569.821
95374.413
29752.061
16735.693
12262.701
2007.6438
2000.4633
12228.207
16695.061
29698.181
95182.794
94995.931
29645.612
16655.501
12194.588
1993.4041
1986.4595
12161.566
16616.747
29594.598
94813.661
94635.591
29545.106
16579.187
12129.484
1979.6368
1972.9195
12097.943
16542.351
29496.988
94461.698
94291.806
29450.184
16506.616
12067.289
1966.3135
1959.8093
12037.124
16471.555
29404.752
94125.796
93963.258
29360.649
16437.62
12007.87
1953.4204
1947.1338
11979.07
16404.309
29317.809
93803.897
93647.517
29276.066
16372.024
11951.128
1940.9571
1934.8745
11923.544
16340.243
29235.418
93493.978
93343.04
29195.748
16309.424
11896.777
1928.8959
1923.0065
11870.298
16279.031
29157.09
93194.616
93048.439
29119.245
16249.544
11844.608
1917.2194
1911.5172
11819.14
16220.406
29082.311
92904.325
92761.999
29046.095
16192.14
11794.448
1905.9149
1900.3999
11769.902
16164.135
29010.642
92621.228
92481.682
28975.765
16136.952
11746.1
1894.9944
1889.7004
11722.32
16109.937
28941.517
92343.227
92205.802
28907.723
16083.652
11699.107
1884.5872
1879.7569
11675.518
16057.436
28874.723
92070.639
91939.853
28842.887
16032.057
11651.981
1875.4696
1872.2424
11628.372
16008.584
28816.265
91821.902
91736.542
28805.587
15993.772
11609.453
1871.1473
1874.6287
11610.365
16009.088
28851.132
91755.901
92026.815
29016.373
16092.981
11661.942
1885.706
1906.0588
11800.57
16289.816
29381.751
92825.566
94363.455
29926.587
16573.522
12012.289
1930.3259
1756.2055
12181.733
16638.821
29880.906
93636.338
92345.131
29445.258
16395.096
11993.102
1736.2113
1717.0904
11854.086
16192.642
29062.613
91605.642
91358.057
28905.674
16114.129
11806.93
1708.4254
1706.1931
11805.82
16099.044
28861.706
91339.031
91422.292
28869.739
16112.411
11823.678
1707.6622
1710.8259
11845.648
16133.666
28893.28
91536.137
91662.706
28921.952
16157.813
11868.692
1714.8472
1719.2911
11891.369
16182.352
28952.152
91793.466
91926.427
28983.138
16207.786
11914.528
1723.9833
1728.8166
11937.647
16233.327
29014.738
92060.374
92195.244
29046.853
16259.71
11961.462
1733.7618
1738.7945
11985.402
16286.263
29079.605
92331.265
92468.688
29113.011
16313.703
12010.091
1743.9174
1749.1206
12034.978
16341.391
29147.176
92607.805
92748.813
29182.12
16370.005
12060.638
1754.4116
1759.7847
12086.557
16398.941
29217.931
92891.975
93037.529
29254.642
16428.851
12113.276
1765.2486
1770.7995
12140.327
16459.175
29292.369
93185.627
93336.424
29331.077
16490.514
12168.206
1776.4456
1782.1833
12196.493
16522.36
29370.903
93490.103
93646.648
29411.855
16555.303
12225.663
1788.0224
1793.9568
12255.333
16588.891
29454.149
93806.376
93969.594
29497.758
16623.592
12285.868
1799.9842
1806.0905
12316.834
16658.823
29542.458
94136.675
94307.589
29588.361
16695.131
12348.66
1812.2855
1818.574
12381.063
16732.176
29635.694
94482.518
94661.96
29684.545
16770.398
12414.375
1824.9633
1831.4517
12448.236
16809.269
29734.697
94846.53
95035.269
29785.467
16849.116
12483.021
1838.0561
1844.8444
12519.11
16890.568
29838.512
95226.317
95422.258
29895.65
16934.516
12556.929
1851.8252
1858.8916
12595.489
16979.503
29955.086
95626.274
2050.1454
12392.609
16913.18
30012.452
96293.502
96078.858
29949.384
16866.896
12353.933
2042.3853
2034.7192
12315.909
16821.453
29887.888
95871.328
95669.343
29829.434
16777.936
12279.28
2027.2424
2019.8892
12243.536
16735.506
29772.656
95472.078
95279.832
29717.465
16694.349
12208.822
2012.6523
2005.5253
12174.801
16654.122
29663.987
95092.696
94910.213
29612.187
16615.172
12141.785
1998.5242
1991.6433
12109.406
16577.091
29561.995
94731.941
94557.459
29513.268
16540.196
12077.977
1984.8931
1978.2562
12047.034
16503.964
29465.809
94386.676
94219.238
29419.636
16468.818
12016.97
1971.746
1965.3465
11987.351
16434.29
29374.71
94055.026
93893.854
29330.933
16400.803
11958.594
1959.0653
1952.8838
11930.22
16367.859
29288.316
93735.753
93580.5
29246.718
16335.894
11902.68
1946.8093
1940.8241
11875.459
16304.408
29206.225
93428.017
93278.022
29166.637
16273.863
11849.054
1934.9407
1929.142
11822.901
16243.714
29128.037
93130.369
92984.828
29090.243
16214.472
11797.548
1923.4462
1917.8341
11772.381
16185.545
29053.304
92841.133
92698.995
29017.058
16157.492
11747.998
1912.3287
1906.9168
11723.721
16129.676
28981.556
92558.158
92418.398
28946.607
16102.679
11700.166
1901.6435
1896.544
11676.509
16075.825
28912.338
92279.738
92143.345
28878.761
16049.714
11653.235
1891.7754
1887.5795
11629.285
16023.807
28846.61
92010.762
91890.438
28818.385
15999.881
11605.71
1884.5455
1883.6917
11585.278
15982.927
28804.578
91795.144
91802.799
28840.75
15992.908
11582.807
1887.6547
1899.2436
11627.469
16067.439
28988.254
92000.134
92772.49
29446.621
16306.806
11790.82
1928.8747
1950.1895
12013.638
16583.279
29849.917
93537.537
93736.239
29851.582
16558.236
11990.732
1951.1176
1926.8232
11781.262
16290.158
29411.266
92785.708
92025.136
28991.875
16070.038
11629.89
1899.1365
1887.3514
11584.045
15994.443
28843.033
91810.243
91800.511
28805.072
15983.701
11586.037
1883.4657
1884.3611
11605.698
15999.864
28818.34
91893.827
92014.118
28846.042
16023.874
11629.474
1887.4497
1891.669
11653.083
16049.493
28878.406
92146.834
92283.402
28912.038
16075.995
11676.751
1896.4733
1901.5854
11700.131
16102.611
28946.524
92422.229
92562.094
28981.558
16130.001
11724.065
1906.8844
1912.3004
11748.076
16157.572
29017.237
92703.038
92845.169
29053.517
16185.983
11772.8
1917.8276
1923.4432
11797.717
16214.668
29090.596
92988.945
93134.506
29128.442
16244.248
11823.387
1929.1598
1934.9647
11849.312
16274.174
29167.159
93282.155
93432.137
29206.783
16305.037
11876.01
1940.8693
1946.8634
11903.027
16336.327
29247.406
93584.671
93739.917
29289.05
16368.597
11930.84
1952.9574
1959.1433
11959.035
16401.372
29331.802
93898.146
94059.497
29375.706
16435.19
11988.066
1965.432
1971.8184
12017.56
16469.611
29420.851
94224.175
94392.325
29467.304
16505.153
12047.945
1978.3145
1984.921
12078.872
16541.406
29515.166
94564.288
94740.268
29564.373
16578.782
12110.692
1991.6511
1998.5061
12143.119
16616.944
29615.06
94920.295
95104.346
29667.28
16656.32
12176.485
2005.49
2012.5846
12210.461
16696.502
29721.028
95292.671
95485.356
29776.203
16737.804
12245.304
2019.797
2027.1262
12280.791
16779.881
29832.661
95682.198
95883.089
29890.689
16823.355
12317.422
2034.6203
2042.3258
12355.299
16868.627
29952.109
96089.114
96302.347
30015.014
16914.906
12393.973
2050.1228
171.27868
171.39054
171.27863
171.39035
170.44963
169.87064
169.69344
174.55032
174.57691
169.87065
171.01911
175.21609
174.57688
175.0787
174.73384
172.87353
170.65441
173.016
175.02857
177.7249
173.95094
171.81494
176.14333
179.7214
172.93694
171.09098
175.59271
176.64466
175.70019
177.9204
177.07477
178.73574
176.63864
179.30358
180.97056
183.89125
178.78538
179.49775
177.39656
175.86208
175.00951
181.10398
183.5038
182.22862
173.80133
172.44527
170.46497
169.5091
176.92997
178.3589
180.95661
179.58939
178.15433
175.40897
167.62094
169.20159
169.19513
163.51918
163.06572
162.82473
161.72031
162.55437
1924.9208
11988.002
16536.056
29866.904
94334.785
92828.136
29378.046
16288.202
11800.896
1905.4399
1886.5922
11666.611
16099.323
29029.565
92044.698
91771.135
28864.358
16016.264
11615.468
1875.8066
1872.1423
11612.923
15998.957
28815.751
91747.987
91830.579
28823.709
16012.825
11631.346
1873.0622
1876.1198
11653.983
16035.041
28848.578
91946.488
92075.93
28879.072
16060.129
11677.472
1880.3018
1885.0337
11700.414
16085.545
28911.223
92210.191
92347.032
28944.31
16111.82
11723.738
1890.0857
1895.3214
11747.027
16138.259
28978.119
92485.123
92624.417
29012.568
16165.549
11771.004
1900.6958
1906.1747
11795.148
16193.09
29047.764
92765.059
92907.288
29083.729
16221.534
11820.047
1911.763
1917.4445
11845.18
16250.294
29120.541
93051.397
93197.574
29158.206
16279.984
11871.084
1923.2309
1929.1123
11897.281
16310.062
29196.829
93346.095
93497.118
29236.417
16341.107
11924.262
1935.0973
1941.1794
11951.59
16372.607
29277.044
93650.826
93807.428
29318.725
16405.107
11979.723
1947.3683
1953.6579
12008.262
16438.138
29361.565
93967.077
94129.874
29405.551
16472.213
12037.631
1960.0566
1966.5626
12067.475
16506.902
29450.79
94296.039
94465.744
29497.311
16542.696
12098.192
1973.1848
1979.9198
12129.468
16579.215
29545.241
94639.17
94816.472
29594.602
16616.918
12161.672
1986.7744
1993.7437
12194.526
16655.452
29645.517
94997.93
95183.74
29698.012
16695.244
12228.362
2000.8331
2008.0399
12262.935
16735.974
29752.179
95374.127
95569.314
29808.088
16778.047
12298.559
2015.3702
2022.8295
12335.018
16821.181
29865.829
95769.696
95975.52
29925.569
16865.778
12372.604
2030.4277
2038.1702
12411.161
16911.645
29987.561
96187.102
95970.989
29924.041
16864.64
12371.754
2030.2147
2022.5521
12333.992
16819.82
29863.92
95766.558
95567.556
29806.305
16776.651
12297.483
2015.0462
2007.732
12262.232
16735.18
29751.526
95371.953
95180.24
29697.776
16694.831
12227.985
2000.5438
1993.4612
12194.303
16655.186
29645.308
94993.41
94811.199
29594.433
16616.725
12161.548
1986.5006
1979.6596
12129.39
16579.082
29545.111
94633.276
94459.479
29497.075
16542.522
12098.107
1972.9409
1966.3241
12067.234
16506.522
29450.198
94289.895
94124.022
29404.611
16471.577
12037.202
1959.8159
1953.4275
12007.718
16437.421
29360.57
93961.434
93801.872
29317.924
16404.46
11979.201
1947.1685
1941.0104
11951.066
16372.011
29276.344
93645.479
93491.884
29235.776
16340.549
11923.772
1934.9634
1929.0101
11896.804
16309.555
29196.278
93340.94
93192.417
29157.703
16279.512
11870.654
1923.1594
1917.3942
11844.757
16249.857
29120.098
93046.191
92902.023
29083.329
16221.124
11819.668
1911.7329
1906.1603
11794.774
16192.717
29047.431
92759.716
92618.935
29012.286
16165.21
11770.679
1900.7003
1895.3398
11746.707
16137.957
28977.9
92479.566
92341.379
28944.178
16111.574
11723.482
1890.1233
1885.0833
11700.18
16085.368
28911.218
92204.574
92070.395
28879.206
16060.034
11677.323
1880.372
1876.2117
11653.871
16035.04
28848.905
91941.406
91826.45
28824.2
16012.9
11631.304
1873.1849
1872.3321
11612.835
15999.109
28816.582
91746.711
91774.582
28865.706
16016.435
11615.177
1876.1569
1887.6638
11667.039
16101.773
29036.481
92062.119
92878.728
29393.422
16293.628
11801.76
1907.9978
1932.2685
12007.944
16576.038
29940.686
94477.586
96405.561
31045.966
17168.521
12425.594
1989.4051
1933.4691
11689.822
16263.529
29681.318
97253.294
93305.06
29746.541
16531.606
11978.039
1940.1832
1927.5779
11785.163
16298.762
29439.23
92768.427
92016.583
28987.78
16067.097
11628.028
1899.0497
1888.2026
11585.791
15997.39
28850.973
91825.546
91814.209
28811.556
15986.473
11587.792
1884.2452
1885.097
11607.618
16002.841
28824.839
91905.863
92023.315
28851.489
16026.499
11631.21
1888.0931
1892.2344
11654.607
16051.759
28882.968
92153.762
92288.544
28915.801
16077.917
11678.063
1896.963
1902.0113
11701.255
16104.238
28949.636
92426.049
92564.962
28984.112
16131.37
11725.027
1907.2564
1912.6307
11748.904
16158.737
29019.367
92705.208
92846.887
29055.313
16186.986
11773.527
1918.1247
1923.7159
11798.355
16215.538
29092.115
92990.303
93135.621
29129.728
16245.001
11823.951
1929.4121
1935.1997
11849.812
16274.834
29168.268
93283.154
93433.055
29207.757
16305.622
11876.462
1941.0938
1947.0831
11903.427
16336.844
29248.26
93585.569
93740.886
29289.796
16369.053
11931.196
1953.1781
1959.3705
11959.342
16401.774
29332.48
93899.176
94060.499
29376.283
16435.518
11988.312
1965.6713
1972.0732
12017.714
16469.832
29421.283
94224.991
94392.764
29467.486
16505.211
12047.962
1978.5872
1985.2059
12078.706
16541.233
29514.987
94564.001
94738.738
29563.82
16578.378
12110.338
1991.9385
1998.7824
12142.549
16616.273
29614.065
94917.406
95100.299
29665.803
16655.368
12175.705
2005.7498
2012.837
12209.54
16695.344
29719.178
95287.679
95479.914
29774.216
16736.6
12244.366
2020.0525
2027.3942
12279.902
16778.775
29830.979
95677.565
95881.125
29889.256
16822.068
12316.335
2034.8705
2042.4863
12353.316
16865.702
29947.746
96091.219
96306.943
30000.793
16908.934
12391.332
2050.2541
95971.775
29925.376
16865.405
12372.292
2030.2564
2022.6577
12334.85
16820.954
29865.616
95765.534
95564.767
29807.661
16777.749
12298.394
2015.1783
2007.8058
12262.623
16735.441
29751.325
95369.451
95179.142
29696.881
16694.501
12227.898
2000.5623
1993.4448
12193.92
16654.566
29644.231
94993.582
94812.387
29593.247
16615.935
12160.97
1986.4627
1979.6008
12128.647
16578.131
29543.766
94635.489
94462.945
29495.886
16541.556
12097.294
1972.8735
1966.3178
12066.858
16506.273
29450.366
94292.97
94125.376
29405.635
16471.993
12037.333
1959.8855
1953.5444
12008.174
16438.167
29361.788
93960.853
93800.912
29318.192
16404.808
11979.485
1947.2592
1941.075
11951.195
16372.125
29276.298
93644.936
93491.757
29235.782
16340.616
11923.847
1935.0121
1929.0522
11896.88
16309.64
29196.375
93341.201
93193.015
29157.898
16279.629
11870.746
1923.2021
1917.4423
11844.877
16250.015
29120.382
93047.051
92903.043
29083.686
16221.317
11819.808
1911.7875
1906.2233
11794.941
16192.949
29047.88
92760.854
92620.288
29012.8
16165.472
11770.864
1900.7721
1895.4235
11746.924
16138.272
28978.545
92481.117
92343.186
28944.951
16111.939
11723.728
1890.2211
1885.198
11700.464
16085.801
28912.166
92206.67
92072.942
28880.293
16060.517
11677.637
1880.5045
1876.3591
11654.223
16035.595
28850.199
91944.61
91830.664
28825.59
16013.465
11631.66
1873.3347
1872.4634
11613.249
15999.786
28818.348
91752.298
91782.38
28866.974
16016.778
11615.388
1876.1734
1887.4003
11666.576
16101.103
29036.15
92072.084
92886.743
29388.723
16290.28
11799.379
1907.1621
1930.9287
12002.934
16569.485
29929.821
94458.609
96365.658
30958.549
17116.172
12389.218
1982.4009
1830.5476
12709.295
17466.605
31546.077
95354.113
96721.882
30158.768
16632.142
12058.393
1960.5453
1940.2175
12045.114
16616.382
30158.334
97005.367
94283.321
29888.347
16552.094
11999.014
1926.7461
1905.6413
11801.18
16288.678
29379.238
92831.856
92038.615
29030.273
16100.641
11667.633
1886.5766
1875.4745
11614.702
16014.983
28861.384
91766.397
91742.841
28813.745
15998.472
11612.754
1871.8836
1872.85
11630.804
16011.994
28821.999
91826.531
91943.324
28847.281
16034.728
11653.868
1875.9692
1880.1732
11677.061
16059.553
28878.097
92073.548
92208.384
28910.396
16085.375
11700.359
1884.9317
1889.9918
11723.396
16111.361
28943.657
92345.644
92484.048
28977.518
16138.16
11747.007
1895.2453
1900.6252
11770.72
16165.174
29012.105
92623.59
92764.4
29047.374
16193.066
11795.167
1906.1205
1911.7114
11819.818
16221.238
29083.433
92906.751
93050.877
29120.269
16250.316
11845.226
1917.4055
1923.1924
11870.898
16279.746
29158.008
93197.164
93345.715
29196.658
16310.123
11897.346
1929.0834
1935.0694
11924.113
16340.916
29236.292
93496.799
93650.562
29276.952
16372.702
11951.68
1941.1605
1947.3485
11979.626
16404.982
29318.713
93807.219
93966.924
29361.589
16438.296
12008.398
1953.6444
1960.0428
12037.615
16472.191
29405.687
94129.89
94296.269
29451.012
16507.167
12067.689
1966.5519
1973.1676
12098.275
16542.805
29497.663
94466.308
94640.066
29545.674
16579.586
12129.757
1979.8982
1986.7392
12161.828
16617.123
29595.119
94817.717
94999.404
29646.024
16655.856
12194.838
1993.6983
2000.772
12228.528
16695.456
29698.511
95185.39
95375.785
29752.62
16736.336
12263.218
2007.9675
2015.2868
12298.69
16778.203
29808.45
95570.864
95771.066
29866.134
16821.461
12335.24
2022.7456
2030.3465
12372.676
16865.851
29925.775
95976.845
96188.292
29987.752
16911.794
12411.287
2038.1003
1858.9829
12596.051
16980.147
29955.87
95632.081
95427.658
29897.422
16935.603
12557.74
1851.9858
1845.115
12520.421
16892.379
29841.316
95228.701
95035.053
29787.086
16850.577
12484.233
1838.3556
1831.7013
12448.867
16809.826
29734.67
94846.455
94662.919
29684.079
16770.492
12414.629
1825.1696
1818.7522
12381.144
16732.13
29635.219
94484.259
94310.053
29587.937
16695.05
12348.696
1812.4437
1806.2322
12316.852
16658.751
29542.113
94139.944
93973.421
29497.617
16623.608
12285.955
1800.1193
1794.0969
12255.553
16589.123
29454.413
93810.376
93650.578
29412.392
16555.717
12226.044
1788.1706
1782.3327
12196.949
16522.866
29371.531
93493.918
93340.161
29331.738
16491.053
12168.719
1776.591
1770.9382
12140.845
16459.731
29293.05
93189.325
93041.15
29255.33
16429.408
12113.821
1765.3827
1759.9147
12087.095
16399.512
29218.646
92895.548
92752.282
29182.813
16370.569
12061.195
1754.5396
1749.2476
12035.523
16341.968
29147.903
92611.174
92472.046
29113.761
16314.293
12010.666
1744.0475
1738.9281
11985.972
16286.882
29080.417
92334.655
92198.637
29047.723
16260.364
11962.083
1733.9054
1728.9736
11938.287
16234.047
29015.748
92063.819
91930.03
28984.325
16208.599
11915.257
1724.1654
1719.5116
11892.161
16183.296
28953.603
91797.376
91667.128
28923.76
16158.946
11869.637
1715.1253
1711.1863
11846.749
16135.076
28895.683
91541.47
91429.568
28872.995
16114.226
11825.089
1708.1545
1706.8445
11807.634
16101.469
28866.238
91348.434
91371.461
28912.643
16117.656
11809.551
1709.2737
1717.6889
11856.449
16195.542
29067.931
91609.585
92349.68
29443.244
16392.652
11991.812
1736.3579
1754.5094
12166.21
16615.714
29838.721
93507.238
1832.9185
12828.065
17627.12
31726.399
94655.222
93742.35
29898.384
16620.198
12161.616
1752.7984
1733.9355
11984.892
16379.772
29414.392
92358.716
91661.531
29081.778
16201.447
11860.395
1718.0754
1709.6038
11812.458
16122.125
28921.759
91392.783
91362.991
28873.268
16105.164
11810.081
1707.1824
1708.4246
11826.409
16116.447
28877.813
91437.152
91546.355
28899.008
16136.974
11848.014
1711.4236
1715.3311
11870.287
16160.094
28926.391
91670.329
91799.616
28955.62
16184.56
11893.027
1719.704
1724.3354
11915.661
16209.327
28986.031
91931.696
92065.068
29017.105
16234.991
11938.952
1729.1324
1734.0422
11962.347
16260.851
29048.917
92199.606
92335.378
29081.366
16287.608
11986.496
1739.0547
1744.1562
12010.829
16314.609
29114.593
92472.711
92611.745
29148.564
16342.532
12035.936
1749.3504
1754.6306
12061.29
16370.77
29183.406
92752.775
92896
29219.119
16399.968
12087.435
1760.0035
1765.4615
12113.878
16429.547
29255.792
93041.623
93189.753
29293.412
16460.117
12141.129
1771.0124
1776.6514
12168.738
16491.137
29332.083
93340.683
93494.56
29371.841
16523.202
12197.189
1782.3868
1788.2156
12226.072
16555.813
29412.776
93651.608
93811.931
29454.899
16589.521
12255.83
1794.1438
1800.1658
12286.092
16623.858
29498.308
93975.801
94143.208
29543.054
16659.36
12317.273
1806.2887
1812.5093
12349.033
16695.581
29589.165
94314.314
94489.245
29636.708
16733.011
12381.751
1818.8335
1825.2599
12415.129
16771.26
29685.753
94668.218
94851.417
29736.348
16810.782
12449.513
1831.7963
1838.442
12484.641
16851.225
29788.569
95039.19
95231.704
29842.5
16893.022
12520.834
1845.2009
1852.0729
12557.885
16935.9
29898.316
95429.289
95632.194
29956.321
16980.275
12596.093
1859.0677
96299.42