/*--------------------------------*- C++ -*----------------------------------*\
  =========                 |
  \\      /  F ield         | OpenFOAM: The Open Source CFD Toolbox
   \\    /   O peration     | Website:  https://openfoam.org
    \\  /    A nd           | Version:  7
     \\/     M anipulation  |
\*---------------------------------------------------------------------------*/
FoamFile
{
    version     2.0;
    format      ascii;
    class       surfaceScalarField;
    location    "410";
    object      phi;
}
// * * * * * * * * * * * * * * * * * * * * * * * * * * * * * * * * * * * * * //

dimensions      [1 0 -1 0 0 0 0];

internalField   nonuniform List<scalar> 
76009
(
0.0019358688
1.478631
-1.4801964
-2.0326695
2.0329966
-36.227791
2.078204
-2.0797196
-2.0790719
2.077114
-34.809766
0.00027686441
0.0017920699
2.0330237
1.478693
-1.4801506
-2.0326383
-36.227726
2.0771646
2.0782533
-2.0796531
-2.0789831
0.00020422225
-34.809578
-0.0029088051
-9.3253668
-0.0028471312
-0.38311163
0.37478078
0.36808953
-0.39120454
0.36810285
0.37480778
-0.38309678
-0.39119987
-0.01256836
-7.696258
0.066455588
-7.4067259
0.012628568
-0.01264557
-0.012611958
-10.341815
0.0055953285
-0.054820955
-9.6923162
-0.0055584486
0.38346865
0.37877583
-0.37533941
-0.38011394
0.38347876
-0.38010716
-0.37533804
0.37877794
-9.3278157
7.6962812
-0.054789445
-9.6923317
0.06652726
0.37067351
-0.37683744
0.52404705
-0.53749237
-8.2567801
-0.0016754083
-0.00010988314
-0.57862582
-0.020063708
0.023915202
-0.024945334
0.032544452
-0.00030819838
-0.56495566
0.032735938
-0.025187302
-0.025307819
0.032625965
-0.011022852
-0.0077110917
-2.481028
0.098794303
0.13271327
-0.12915905
-0.096135264
0.0036086126
-2.6368315
0.094986754
-0.092190517
-0.12661975
0.12825473
-0.13028899
-2.3428225
0.0024601703
-0.4756248
0.0020408855
-0.001634649
-0.00140335
0.00065442477
-0.57546637
-0.03189481
-0.02348888
0.02377413
0.032333854
-0.52702379
0.0016236238
-0.00066307833
0.00042955359
-0.65442497
-0.0015243476
-0.00041664142
-0.66419702
0.48062692
-0.62368744
0.0097293183
0.006294814
0.0047468102
-0.13147318
-0.51099392
-0.023262399
0.023555268
0.032691458
-0.032749823
-0.0017210096
-0.13248794
-0.10177197
0.098028886
-0.10176937
-0.13248163
-2.3806009
0.0020813839
0.13654091
0.13360686
-0.13103256
-0.13368474
-2.5351887
0.13607639
-0.1333371
-0.12901167
0.13156864
-2.4760417
4.406919e-05
-7.736192e-05
0.0016529059
-0.53355551
-0.00065802226
-0.00080194207
0.0016868939
-0.53494166
0.0016420442
-0.53166866
9.0658593e-05
-0.54552285
-5.0723034e-05
0.032312193
0.032355909
-0.031924651
-0.031918342
6.6528347e-06
-0.54631316
0.032387847
-0.031917684
-0.031934617
0.032352204
-0.5474452
-0.032095782
0.032542474
0.032385693
-0.031918256
0.0028074757
-0.00030237441
0.00010906373
0.032738596
0.032629518
-0.025302209
-0.025182896
-0.56494237
-0.00056285464
-0.65890134
-0.0029277749
-0.00012473741
-0.66613674
-0.00013134444
0.032630782
0.03259368
-0.025382681
-0.02531103
-0.56394271
0.0029921872
-1.1240462e-05
-0.025379295
0.032595472
0.032556674
-0.025376073
-0.56303192
0.00057052593
-0.66459568
0.52520285
-0.0030119206
-0.65064564
1.356822e-05
0.0016190706
1.5206919e-05
-0.54369394
1.492803e-05
-0.031898706
0.032299868
0.032275915
-0.031884762
-0.56110441
1.4114195e-05
-0.025354228
0.03254371
0.032521926
-0.025338221
0.0046431868
3.1351834e-05
-0.57241607
1.1650426e-05
0.0066254741
-0.12872838
0.00064940537
-0.51793554
1.2062533e-05
-0.50025077
0.0024172498
-2.0269578
-0.10831594
0.1331274
-0.10482873
3.8480966e-05
0.0017110492
-7.7909833
0.51970876
-0.5457509
-0.52570408
9.2607171e-05
-8.2567258
-0.37681384
0.37069566
0.52406187
-0.53746688
0.012480635
0.54782213
0.38619249
-0.37558251
-0.52881614
-10.433296
0.5532636
7.4393538e-05
-0.53179859
-0.51388793
0.53651813
-9.9016554
-0.0068936283
0.02036653
2.6815675
-2.1402508
-0.0015260282
-0.013382284
2.6566442
-2.1177711
0.015437703
2.6260572
0.0064763066
-1.8762547
1.8142116
0.021744019
0.03017611
0.042727701
0.035932411
-2.1038083
-0.084973626
-0.0029625145
0.12979559
0.096590693
-0.10468378
0.040418654
-0.003305658
0.6338832
0.021477356
-2.3268414
-0.0074176111
0.61574955
0.53948636
0.62211301
0.077670575
-0.098049837
-0.13415284
0.09650026
0.084326815
0.47526424
-0.0044938796
-0.0061876007
-2.0377376
0.094771018
0.12577497
-0.11878714
0.081505033
-2.1869127
-0.19037599
-1.9495199
0.0027833501
0.14507601
-0.0048630947
0.0010501029
-0.14282939
-2.178217
-0.0066272369
-2.630187
0.0050952977
-0.0024266476
-2.6558831
2.3144108
0.09592962
0.13058619
-0.12956692
-0.095143984
0.00046456342
-2.3105349
0.0015577606
0.13182152
0.096409761
-0.09476961
-0.12922896
2.2163731
-2.2004747
4.5888985e-05
-0.12988506
0.1327882
0.13216233
-0.12908546
0.62856999
-0.064535541
-0.0017908191
0.63334397
0.54549534
0.54226839
0.098775604
-0.13599328
-0.13515788
0.09797975
0.10537954
-0.0018619044
0.52325965
0.005446986
-0.0036542871
-2.0661367
-0.10876713
0.13353689
0.13072127
0.0018387739
0.061960376
2.9290377e-05
-2.6128127
0.63244046
0.54158367
0.53925446
0.61776735
3.290334e-05
0.097978626
-0.13485369
-0.13467085
0.097682604
-2.197046
0.0010707774
-0.0039934306
0.52629712
0.00075004924
0.52770597
-0.0039202622
-0.00031499567
-0.0044909436
-8.7945889e-05
-0.00089315337
-0.0043422595
-0.0023934693
-0.51993565
-0.0031934227
3.5466249e-05
-0.51577739
0.0098985058
0.0080018751
-0.0030685336
-0.020240322
0.0032470287
0.57477187
-0.037823633
-0.0037774351
0.57861529
0.0034228275
-0.00056116262
0.023917971
-0.020060316
-0.024941488
0.032546788
-0.02375366
-0.1176271
0.00057591518
0.16437404
0.00034877506
-0.020324
0.032748539
-0.02982083
-0.010759363
-0.63278506
-0.15567553
-0.0011065691
-0.0012293225
0.1537279
0.15581872
0.13478217
-0.0070799321
-0.022777823
0.018954374
0.023176434
-0.02820329
-0.0030563315
-0.57759493
0.12944612
-0.0006495016
-0.0011167691
0.16271289
-0.00021815003
7.4076485e-05
0.00012580503
0.13077967
-0.00010261285
1.5222811e-05
0.11834861
-0.00060003823
0.00019900632
0.0004151353
-0.00010595877
9.8398574e-05
0.00011990129
-0.14564548
-0.00018400071
-6.2957261e-05
-0.13143411
7.9792022e-05
-2.1791295e-05
-0.16405551
-0.00070667678
-0.1453986
-0.0003506975
-2.0580699e-05
-0.00036299919
-0.14387573
-0.0012523989
-0.00012562324
-0.13065292
-0.00066827247
-0.00063625718
-0.0052480922
-0.0094090475
-0.0009702715
0.00011453834
0.1449357
0.00030514418
-0.15423038
-0.00053404637
0.028504637
0.13138771
7.3884295e-06
-0.16503329
0.49525448
0.033003669
0.032227368
-0.03234455
-0.035100146
-0.57706752
0.032573604
-0.03242847
0.031914825
-0.032279955
0.031465152
-0.13146881
-0.000142705
-0.00011453764
-3.9930402e-05
-0.00054656863
-0.16401745
0.14539541
-0.00043565141
-0.14530291
-4.7478522e-05
-0.00022323863
-9.2677003e-05
0.00015917216
-0.14475984
-0.00021915942
-0.0001132894
-0.12997427
-8.2142532e-05
-7.9855763e-05
-0.16212833
-0.00059260246
-0.14488823
-0.00031449437
-7.2624672e-05
0.001157676
-0.00020149258
-0.14551039
-0.00030583906
-2.818386e-05
-0.00039486083
-6.7068469e-05
-0.00068920636
-0.13053769
-0.0002539694
0.00013093444
-0.00071168402
-0.16229411
-0.00030009495
-0.1447175
-5.6709163e-05
-2.9564866e-05
-0.14373809
0.14389154
-3.1597473e-05
-0.00039239178
0.032635134
-0.16276276
-0.00038166968
0.12976805
0.035106048
-0.59566845
-0.032635674
0.03253473
0.52677184
0.024238975
-0.024793277
-0.024792486
0.024239142
0.032534142
0.0107669
-0.57707083
0.032227217
0.033004953
-0.02850488
-0.032345852
-0.63279101
-0.020323751
0.023755399
0.032748968
-0.029821825
-0.00014271059
-0.56395908
0.032627267
-0.025317006
-0.025390743
0.032588164
-2.7759291e-05
-0.56304995
0.032590264
-0.025387565
-0.02538726
0.032548312
-0.56112327
0.032536034
-0.025365361
-0.025352833
0.032510217
-5.8446516e-06
4.7293381e-05
0.0065879998
-6.0857699e-06
0.0046733353
-0.57242581
0.00024991141
0.006720052
0.0046329127
-0.57460553
0.00070294738
0.0045083764
-0.5759419
0.007021399
0.00056524057
0.0043550558
-0.57661679
0.0074437774
-0.0098977125
0.0032029806
-0.57477892
0.003413077
-0.12577613
-2.8557106e-05
-0.51578192
0.0079939551
-0.035912128
-2.0377454
-0.084325046
0.09477649
-0.11878908
0.081483626
-1.8142221
0.042741888
0.030161701
0.021748382
-2.6260664
-0.021480492
-2.1869165
-0.19038657
0.63388895
-0.040395604
-2.3268481
-0.0074367811
0.62211987
0.5394888
0.61575275
0.077666861
-0.098053035
-0.13415875
0.096494564
0.084982274
-0.0061882536
0.47526923
-0.004499343
-2.1038299
-0.0029576112
-0.10469379
0.12978964
0.096583697
-2.6566597
-0.0033098208
-0.013383601
-0.54780599
0.015420138
-2.1177777
0.0068874313
-0.38617712
-1.8762589
0.0064648094
-0.37559727
-0.52883261
0.012487805
-10.43333
0.0048542018
-0.0066268459
-2.6301907
1.9495216
0.0010463402
-2.1782177
-0.14283407
0.0027784115
0.14506942
-2.3144124
0.0015417593
0.096407801
-0.094771312
-0.12923259
0.13181714
-0.0050820701
-2.3105345
0.00045334673
0.095928322
-0.095145087
-0.12956922
0.13058319
-0.0024314228
-2.6558878
0.53182074
-2.6830864
0.0024545071
2.1402571
0.0061225962
7.791068
-9.9016999
-0.51391803
0.53648186
0.55324045
6.4278935e-05
0.5196819
-0.54578946
0.50020889
-0.52575878
8.4946755e-05
-2.0661636
-0.10539215
0.13071334
0.1335249
-0.10878473
-0.0024278493
0.064497567
-2.6815858
0.0018253959
0.62857949
0.63335272
0.54226955
0.54549945
-2.2163779
-0.0018273666
-0.13599889
0.098768928
0.097965663
-0.1351709
0.0054504368
0.52326831
-0.0018666163
-0.0036647855
0.51994304
-0.0032547784
-0.0023946839
0.00089213093
0.00031137649
-0.52771633
-9.6030929e-05
-0.0039346492
-0.0010802952
0.00090120566
-0.00084750806
-0.037660695
0.0037832408
-0.037664155
0.0030708805
-0.037832542
-0.020246711
0.11750511
0.50178284
0.0072459546
0.0087329135
-0.65551354
-2.2127345
-0.11750512
0.12603942
0.091481043
-0.10245498
0.09148105
0.12604277
-0.10245679
0.10985969
0.096447828
0.10985861
-0.096272132
-0.097982638
0.096450323
-0.097980082
-0.096270264
-2.6176084
0.65551118
0.0030493165
-0.47143729
0.0004070551
0.50177987
0.0087357408
0.0072501289
-0.0040438226
-0.51546971
-0.020951619
0.02746764
-0.030602962
0.031602722
0.01832363
-0.0050165493
-0.050067835
-0.55410456
0.15885026
0.15608703
0.13517496
0.1552192
-0.012032458
-0.0021240528
0.023159591
0.018829021
-0.02467068
-0.033546599
-0.57996282
0.11860634
-0.0013169259
-0.0021686017
-0.00013392295
0.0001289891
-0.13042457
-0.0001511423
-0.00061216244
-0.0022294252
-0.0016283311
0.0012159735
0.14318164
-0.001346612
-0.01010546
0.12964479
-0.0059811807
3.2508683e-05
-0.00095010963
-0.0013328488
-0.00032165319
-7.3210383e-05
-0.14367099
-0.0011571276
-0.00016960306
-0.032533632
-0.13046047
-0.00079198078
-0.018321673
0.032532621
-0.029823476
-0.025262347
0.024204744
-0.56233155
-0.029821808
-0.025260895
0.024205925
0.0040488532
-0.020952869
0.027467247
0.031601466
-0.030604778
-0.51547137
0.0070774098
0.15567844
0.15582085
0.13478387
0.1537311
-0.003064505
-0.57760018
-0.022779724
0.018952636
-0.028206186
0.02317418
0.11762942
-0.0012315327
-0.0011069022
0.00034606118
0.0005761404
-0.00020058949
0.0011609706
-0.14551289
-0.00030870009
-3.0278484e-05
0.00069163253
-0.13053926
-0.00025650855
0.00067151004
0.00039430535
-0.13138962
-0.1306553
0.00036280393
-0.00063697605
-0.005250836
0.00065232653
0.14387896
-0.0094124548
-0.00097193997
0.12944925
-0.0011180602
-0.00022153997
7.3613267e-05
-0.0012558402
-0.00012663216
-0.14493857
-6.8608981e-05
0.00011574617
0.00030250572
-0.00053652294
-0.15423276
5.545846e-06
-0.16503514
0.00012934112
-0.00071341014
-0.1622955
-0.00030221966
-5.9496094e-05
-0.14471932
-2.7740419e-05
0.14389351
-0.00039363652
-3.4879998e-05
-0.14373947
0.12976915
-0.00038230058
-0.16276367
0.16226081
-7.9490894e-06
-0.00020549231
0.032502694
0.12949607
-0.00019178903
-0.00014227611
0.032265105
0.024143264
-0.024613695
-0.032504223
0.032261633
-0.024614314
0.024141466
-0.0015155081
2.0771841
-2.0789827
-2.079567
2.0783984
-34.809571
1.4788313
2.0331509
-2.0325684
-1.4800665
-36.227664
-0.53031062
-10.422767
-0.36946471
0.37482203
0.058441352
0.002015993
0.13655186
-0.13367851
-0.13101588
0.13362974
-0.0035444268
-2.53521
0.13156678
0.13609167
-0.1333254
-0.12901421
-2.4760489
0.0006818834
-0.52520413
0.001623428
-0.0017047618
-0.00011556777
-0.54632085
2.6949127e-05
0.03239599
0.032357002
-0.031931313
-0.031911145
5.0622907e-05
-0.53494749
-0.00078313982
-0.5335591
0.0016647792
0.00054909587
-0.0029826379
0.00014905319
-0.66460002
-0.0030084755
-0.6506472
0.54369577
3.8431123e-05
-0.56110635
0.032520951
0.032547257
-0.025351545
-0.02533887
7.9225767e-05
-0.031885922
0.032274952
0.0323041
-0.031895114
-0.5455279
0.032314412
-0.03191709
-0.031919263
0.032362543
0.00015562911
-0.56303717
0.032558211
0.032600995
-0.025375016
-0.02537475
0.0029132987
0.00032271908
-0.563951
0.032637655
0.032597374
-0.02537965
-0.025305615
0.00058026117
-0.66614391
0.53167596
-0.0027895354
-0.00041174848
-0.65891029
0.0016638064
-0.0016047355
-0.54745471
0.032551327
0.032392161
-0.031913554
-0.032088726
-0.00063890467
0.00012509117
-0.5649527
0.032746174
0.032634721
-0.025297965
-0.025176851
0.0015039679
0.032553003
0.57547801
-0.024936432
-0.020053893
0.023926132
-0.5786273
-0.0097183902
0.12914721
0.52703232
-0.65443559
-0.00065172158
-2.6368641
0.13273182
-0.096115192
0.098821177
0.011058475
6.0227481e-05
-0.0020933728
1.492321e-05
-3.5739726e-05
0.00012237134
-0.0025522346
1.915139e-05
-3.9928878e-05
0.00019040941
-0.0029247544
2.2411393e-05
-4.3648836e-05
0.00026935115
-0.0032999749
2.5185315e-05
-4.7778574e-05
-0.054865789
0.00050343866
-0.00046567174
-0.00017101724
-0.00023134304
-0.054923218
0.00030518624
-0.00020069194
0.00018427784
-0.00016311856
-0.0033634487
1.7875231e-05
-2.2625974e-05
-0.00010111693
-0.0029822544
1.6493148e-05
-2.0994861e-05
-4.5870317e-05
-0.0026033157
1.5295891e-05
-1.9461471e-05
-0.0021357083
1.3960333e-05
-1.7495221e-05
2.0124726e-05
-0.002153386
3.1814869e-06
-5.6284804e-06
4.1180425e-05
-0.0026220073
3.8990994e-06
-6.2632044e-06
6.428018e-05
-0.0030029356
4.2836671e-06
-6.7021644e-06
9.0400949e-05
-0.0033870259
4.628027e-06
-7.1715876e-06
-0.055188809
0.00010784772
-6.4252068e-05
0.00031239602
-3.6274609e-05
-0.055523794
7.0127263e-05
-2.3504807e-05
0.00032463681
-2.5903011e-05
-0.0033975403
3.1765166e-06
-3.0338646e-06
-1.6433972e-05
-0.0030124658
2.9614713e-06
-2.9004992e-06
-7.7775835e-06
-0.0026306735
2.8238874e-06
-2.8142709e-06
-0.0021611565
2.7704638e-06
-2.7775113e-06
3.3397529e-06
-0.0021643819
1.5167523e-06
-1.6312992e-06
6.4221007e-06
-0.002633751
1.6634072e-06
-1.6683939e-06
9.484808e-06
-0.0030156161
1.7947323e-06
-1.7071328e-06
1.2693447e-05
-0.0034009414
1.9561071e-06
-1.7636043e-06
-0.055808322
4.8422389e-05
-1.2484392e-05
0.00026128389
-6.9675242e-06
-0.056002939
3.902771e-05
-1.0916656e-05
0.00017347353
-5.3810437e-06
-0.0034027936
1.8102071e-06
-1.5444745e-06
-3.7397643e-06
-0.0030174409
1.674059e-06
-1.4905047e-06
-1.978668e-06
-0.0026356295
1.5637221e-06
-1.4463048e-06
-0.0021664361
1.4764472e-06
-1.4009477e-06
1.7256346e-06
-0.0021681548
1.2018509e-06
-1.2086321e-06
3.1270577e-06
-0.0026370717
1.3222909e-06
-1.281383e-06
4.3533333e-06
-0.0030187572
1.4285507e-06
-1.3384922e-06
5.4999514e-06
-0.0034040858
1.5445209e-06
-1.3989631e-06
-0.056116445
3.0406132e-05
-1.0375793e-05
9.8975629e-05
-5.1505376e-06
-0.056175274
2.3640759e-05
-9.39726e-06
4.9735459e-05
-4.0866102e-06
-0.0034052352
1.3142459e-06
-1.2288514e-06
-2.9443339e-06
-0.00301995
1.2201051e-06
-1.1697401e-06
-1.6298178e-06
-0.0026384052
1.1315365e-06
-1.1126905e-06
-0.002169778
1.0347321e-06
-1.0413026e-06
1.57806e-06
-0.0021713319
8.4109664e-07
-8.653578e-07
2.8173234e-06
-0.0026396409
9.2804256e-07
-9.3169188e-07
3.8768104e-06
-0.0030210289
1.0030893e-06
-9.8362306e-07
4.8530492e-06
-0.0034062546
1.0794562e-06
-1.0363135e-06
-0.056203692
1.8400969e-05
-8.0714899e-06
2.2941763e-05
-4.6225872e-06
-0.05621741
1.4604967e-05
-6.75479e-06
1.0490889e-05
-3.7098479e-06
-0.0034071899
8.826648e-07
-8.600548e-07
-2.7125234e-06
-0.003022031
8.1999605e-07
-8.1522652e-07
-1.532665e-06
-0.002640807
7.5728458e-07
-7.7098711e-07
-0.0021728344
6.8448634e-07
-7.1464574e-07
1.4928171e-06
-0.0021742919
5.5458503e-07
-5.8982022e-07
2.6235931e-06
-0.0026419171
6.1641981e-07
-6.3703518e-07
3.5611791e-06
-0.0030229643
6.6974609e-07
-6.7402094e-07
4.4075246e-06
-0.0034080472
7.2222396e-07
-7.1128997e-07
-0.056224682
1.1824513e-05
-5.6006587e-06
5.4548836e-06
-4.2399138e-06
-0.056229166
9.7314713e-06
-4.6443776e-06
3.6375865e-06
-3.4441842e-06
-0.0034088473
5.9466961e-07
-5.9032267e-07
-2.5533727e-06
-0.0030238459
5.5013331e-07
-5.5931832e-07
-1.4620443e-06
-0.0026429841
5.0414476e-07
-5.2855711e-07
-0.0021757161
4.512131e-07
-4.8910066e-07
1.4383833e-06
-0.0021771147
3.6605513e-07
-4.0589462e-07
2.4960062e-06
-0.0026440143
4.1182577e-07
-4.3924756e-07
3.3517258e-06
-0.0030246886
4.5174901e-07
-4.6477396e-07
4.1052786e-06
-0.0034096008
4.9007035e-07
-4.901128e-07
-0.056232341
8.0579315e-06
-3.836684e-06
3.0582353e-06
-4.0068112e-06
-0.056234766
6.6271364e-06
-3.1364443e-06
2.9412935e-06
-3.2836092e-06
-0.0034103193
3.9981896e-07
-4.0450624e-07
-2.4570265e-06
-0.0030254984
3.6708219e-07
-3.8396142e-07
-1.4229095e-06
-0.0026450178
3.3260333e-07
-3.632357e-07
-0.0021784955
2.9337859e-07
-3.3548704e-07
1.4140361e-06
-0.002179861
2.2453738e-07
-2.7307118e-07
2.4316149e-06
-0.0026459973
2.5636572e-07
-2.9445355e-07
3.2369554e-06
-0.0030262784
2.8504707e-07
-3.1030433e-07
3.9330978e-06
-0.0034110015
3.118816e-07
-3.2581122e-07
-0.056236612
5.2298379e-06
-2.4757405e-06
3.0254527e-06
-3.887523e-06
-0.056237928
3.6634063e-06
-1.7671384e-06
3.3073971e-06
-3.2063943e-06
-0.003411652
2.1301916e-07
-2.4366187e-07
-2.4158849e-06
-0.0030270287
1.9336998e-07
-2.3357283e-07
-1.4072692e-06
-0.0026469545
1.7205972e-07
-2.2343548e-07
-0.0021812084
1.4976664e-07
-2.0960392e-07
1.4092866e-06
-0.002182541
6.4278538e-08
-1.4093157e-07
2.4083786e-06
-0.0026478823
7.4279361e-08
-1.4558188e-07
3.1920322e-06
-0.00302775
8.6478629e-08
-1.4885879e-07
3.8599469e-06
-0.003412265
9.7280052e-08
-1.5219146e-07
-0.056238746
1.8387805e-06
-9.6490312e-07
3.8036498e-06
-3.8520157e-06
-0.056238889
-2.2547499e-07
-1.7931028e-07
4.4002721e-06
-3.1893298e-06
-0.0034128238
-3.4818145e-08
-6.9119967e-08
-2.4116776e-06
-0.0030284201
-3.5108376e-08
-7.2486054e-08
-1.4123199e-06
-0.002648769
-3.6344343e-08
-7.6308117e-08
-0.0021838402
-3.196786e-08
-8.109806e-08
1.4208172e-06
-0.0021851366
-1.2460811e-07
1.177253e-10
2.4233219e-06
-0.0026496436
-1.4397167e-07
1.6060783e-08
3.1976779e-06
-0.0030290687
-1.5353644e-07
2.7849296e-08
3.861028e-06
-0.0034133621
-1.6358207e-07
3.8531616e-08
-0.056238523
-2.2168358e-06
7.0818241e-07
5.0033523e-06
-3.8759243e-06
-0.056237723
-3.4376438e-06
1.1567357e-06
5.3571115e-06
-3.2145919e-06
-0.0034138703
-2.4565427e-07
9.2554992e-08
-2.4316315e-06
-0.0030297005
-2.293122e-07
7.8099044e-08
-1.4293894e-06
-0.0026504956
-2.1268186e-07
6.2418678e-08
-0.0021864233
-1.8382899e-07
4.117158e-08
1.4325638e-06
-0.002187712
-1.7729838e-07
3.3439313e-08
2.4380122e-06
-0.0026513483
-2.0452791e-07
5.1830862e-08
3.2146073e-06
-0.0030303226
-2.1971776e-07
6.5201265e-08
3.873537e-06
-0.0034143719
-2.347511e-07
7.7440354e-08
-0.056236801
-3.2087475e-06
9.6117704e-07
5.199242e-06
-3.8581063e-06
-0.056236185
-1.2476764e-06
1.8874509e-08
4.4703086e-06
-3.2065813e-06
-0.0034148898
-1.1668586e-07
-1.6990442e-08
-2.4369724e-06
-0.0030309591
-1.1292056e-07
-2.01517e-08
-1.4372016e-06
-0.0026522145
-1.1006521e-07
-2.3558917e-08
-0.0021890207
-9.9407437e-08
-2.9101244e-08
1.4351383e-06
-0.0021903654
4.8021778e-08
-1.384716e-07
2.4299459e-06
-0.0026531204
6.6519222e-08
-1.5544454e-07
3.1935368e-06
-0.0030316394
8.52911e-08
-1.6858849e-07
3.8352268e-06
-0.0034154525
1.0188912e-07
-1.8087742e-07
-0.056236285
2.2920903e-06
-1.570115e-06
3.2129618e-06
-3.8478782e-06
-0.056237304
6.7003426e-06
-3.4697036e-06
1.6368557e-06
-3.2050995e-06
-0.0034160915
3.7747824e-07
-3.8121808e-07
-2.4413666e-06
-0.0030323882
3.3607922e-07
-3.5099968e-07
-1.4450052e-06
-0.0026540888
2.9072319e-07
-3.1870403e-07
-0.0021917714
2.3634784e-07
-2.753694e-07
1.4455547e-06
-0.0021932339
4.1656801e-07
-3.9965599e-07
2.4412302e-06
-0.0026551202
5.0246187e-07
-4.6670851e-07
3.202776e-06
-0.0030332056
5.7165797e-07
-5.1580984e-07
3.8427687e-06
-0.003416806
6.3590412e-07
-5.6138925e-07
-0.056239347
1.0771911e-05
-5.1407825e-06
2.5424644e-07
-3.8723387e-06
-0.05624215
1.3207818e-05
-6.0301057e-06
-5.0243337e-07
-3.2285181e-06
-0.00341758
7.8834195e-07
-6.5819035e-07
-2.4625553e-06
-0.0030340773
7.1006345e-07
-6.0439776e-07
-1.4593337e-06
-0.0026562031
6.2593128e-07
-5.4630487e-07
-0.0021947462
5.194948e-07
-4.6648393e-07
1.4804386e-06
-0.0021963091
5.2187645e-07
-4.3945027e-07
2.5040282e-06
-0.0026573404
6.3010594e-07
-5.1644692e-07
3.289701e-06
-0.0030350062
7.1570879e-07
-5.7248139e-07
3.952746e-06
-0.0034184145
7.9541595e-07
-6.2395268e-07
-0.056245391
1.3358932e-05
-5.7595625e-06
-4.0528398e-07
-4.1046505e-06
-0.056248444
1.126713e-05
-4.6242725e-06
5.1513214e-07
-3.4039407e-06
-0.0034192642
6.5805393e-07
-5.0913664e-07
-2.579975e-06
-0.0030359512
5.8902114e-07
-4.6799539e-07
-1.5195648e-06
-0.002658493
5.1524416e-07
-4.2307047e-07
-0.0021978918
4.2350589e-07
-3.6037984e-07
1.5687836e-06
-0.002199501
2.5822568e-07
-2.1769403e-07
2.6745209e-06
-0.0026596572
3.1215892e-07
-2.5358517e-07
3.5444422e-06
-0.0030369063
3.6463528e-07
-2.7939132e-07
4.2915574e-06
-0.0034201236
4.1528148e-07
-3.029176e-07
-0.056251002
7.5372945e-06
-2.7058988e-06
2.017473e-06
-4.4221556e-06
-0.056252984
3.0073308e-06
-6.1872436e-07
4.0156332e-06
-3.6517218e-06
-0.0034209303
1.149685e-07
-7.8767539e-08
-2.7604451e-06
-0.0030378111
8.80108e-08
-7.4546813e-08
-1.6211332e-06
-0.002660787
5.9436637e-08
-6.9097714e-08
-0.0022010962
3.4244708e-08
-6.0120882e-08
1.5756035e-06
-0.0022026078
-1.3592175e-07
7.1958588e-08
2.6673879e-06
-0.0026618383
-1.2822034e-07
8.7798611e-08
3.516518e-06
-0.0030386402
-1.1971486e-07
9.9759544e-08
4.2426387e-06
-0.0034216525
-1.1503686e-07
1.1112855e-07
-0.056255199
-7.1890195e-07
1.1367421e-06
6.0401636e-06
-4.6673845e-06
-2.7298e-06
2.2284098e-06
6.793045e-06
-3.8356099e-06
-2.4997068e-07
2.3129169e-07
-2.8858888e-06
-2.4455729e-07
2.0987196e-07
-1.6899569e-06
-2.4462087e-07
1.8687846e-07
-2.4217988e-07
1.5445517e-07
-4.2625654e-06
0.082191944
-2.330588e-06
8.684326e-06
-3.4417539e-06
0.0035205321
-1.3107124e-07
-2.5466407e-06
0.0030658505
-1.131272e-07
-1.4684216e-06
0.0026352472
-9.2330704e-08
0.0021391762
-6.3007669e-08
1.3188657e-06
0.0021375919
1.2961698e-07
2.2324292e-06
0.002634088
1.1736212e-07
2.9564236e-06
0.0030648973
1.0949132e-07
3.5981928e-06
0.0035196695
1.0570543e-07
0.082185913
3.9969943e-07
8.511122e-06
-4.0123724e-06
0.082181832
3.5764506e-06
7.5240394e-06
-3.2785639e-06
0.0035187414
3.0927773e-07
-2.4714103e-06
0.0030638861
2.9207593e-07
-1.4621418e-06
0.0026328671
2.7113352e-07
0.0021359301
2.339139e-07
1.586932e-06
0.0021342046
3.9681111e-07
2.7432608e-06
0.0026315594
4.6355394e-07
3.7077194e-06
0.0030627749
5.1137308e-07
4.6015981e-06
0.0035177076
5.5521542e-07
0.082179933
7.2895141e-06
6.7487814e-06
-4.5852447e-06
0.082178205
1.0680987e-05
6.8992969e-06
-3.6873101e-06
0.0035166753
7.9242466e-07
-2.7169524e-06
0.0030616675
7.2605297e-07
-1.5577633e-06
0.0026302599
6.5556156e-07
0.0021325114
5.5893025e-07
1.5416253e-06
0.0021308505
6.4122042e-07
2.6869365e-06
0.0026289897
7.5496074e-07
3.6397372e-06
0.0030605917
8.3867143e-07
4.5160112e-06
0.0035156774
9.1708984e-07
0.082176544
1.2487163e-05
7.0481647e-06
-4.4978351e-06
0.082175292
1.1895093e-05
7.0627978e-06
-3.6279388e-06
0.0035147271
8.6869159e-07
-2.6790972e-06
0.0030595591
7.9380958e-07
-1.5390076e-06
0.0026277611
7.1439463e-07
0.0021292243
6.0664323e-07
1.5351492e-06
0.0021276499
4.5582264e-07
2.6804338e-06
0.0026265842
5.3412593e-07
3.6348352e-06
0.0030585839
5.9250961e-07
4.5121782e-06
0.0035138377
6.4798371e-07
0.08217467
8.8790282e-06
7.0271318e-06
-4.4654378e-06
0.082174509
4.2813346e-06
7.0454056e-06
-3.5978253e-06
0.0035130334
3.1412574e-07
-2.6481423e-06
0.003057682
2.8827671e-07
-1.5134728e-06
0.0026254781
2.6213476e-07
0.0021261449
2.2784172e-07
1.4640451e-06
0.0021247053
2.3593975e-08
2.5541094e-06
0.0026244406
1.3975683e-08
3.4584365e-06
0.0030568563
6.66103e-09
4.2864725e-06
0.0035123071
1.2028202e-10
0.082174492
-4.0678878e-07
7.0022056e-06
-4.1597241e-06
0.082174645
-4.1136829e-06
6.8732498e-06
-3.3582221e-06
0.0035116368
-2.478204e-07
-2.4792085e-06
0.0030560801
-2.1570701e-07
-1.4229046e-06
0.0026234542
-1.7995225e-07
0.0021233123
-1.2925332e-07
1.4224757e-06
0.0021219411
-2.2861087e-07
2.4801855e-06
0.0026224843
-2.924053e-07
3.3572467e-06
0.0030553255
-3.4224772e-07
4.1622342e-06
0.0035109853
-3.8821962e-07
0.082175005
-6.1983601e-06
6.7911219e-06
-4.2052864e-06
0.082175297
-6.4304527e-06
6.9065174e-06
-3.3877231e-06
0.003510334
-4.1200113e-07
-2.4931934e-06
0.0030545672
-3.655037e-07
-1.4242562e-06
0.002621517
-3.1425983e-07
0.0021205797
-2.4667921e-07
1.4200415e-06
0.002119206
-1.7091395e-07
2.4885567e-06
0.002620532
-2.2757981e-07
3.3816785e-06
0.0030537902
-2.6964874e-07
4.2018686e-06
0.003509658
-3.0772727e-07
0.082175197
-5.0314508e-06
7.1163954e-06
-4.1869768e-06
0.082174556
-2.8147553e-06
7.4168691e-06
-3.3650748e-06
0.0035089427
-1.4146793e-07
-2.4728839e-06
0.0030529798
-1.1688521e-07
-1.4090313e-06
0.0026195212
-8.9383403e-08
0.0021178179
-5.2937737e-08
1.403808e-06
0.0021164124
6.5940498e-08
2.4660254e-06
0.0026184836
4.9666288e-08
3.360051e-06
0.0030521353
3.6880131e-08
4.1825421e-06
0.0035081916
2.5919221e-08
0.082173336
-5.6519736e-07
7.8074441e-06
-4.2019229e-06
0.082171545
1.3287338e-06
8.3275159e-06
-3.3680786e-06
0.0035074038
1.669201e-07
-2.4693747e-06
0.0030512633
1.6670953e-07
-1.4013482e-06
0.0026174202
1.674111e-07
0.0021149933
1.6752771e-07
1.4058445e-06
0.002113561
2.5098078e-07
2.4842486e-06
0.0026163354
2.6275854e-07
3.3970432e-06
0.0030503646
2.7091583e-07
4.2475921e-06
0.0035065855
2.7966685e-07
0.082169119
2.8324468e-06
9.0708788e-06
-4.3255576e-06
0.082165895
4.0521593e-06
1.0123961e-05
-3.4483065e-06
0.0035057353
3.7279765e-07
-2.510848e-06
0.0030494366
3.5763233e-07
-1.417756e-06
0.0026152321
3.4285873e-07
0.0021121142
3.2240301e-07
1.4326238e-06
0.0021106563
3.9140219e-07
2.5560739e-06
0.0026141012
4.1923863e-07
3.5239291e-06
0.0030484811
4.39421e-07
4.4389966e-06
0.0035048502
4.6004347e-07
0.082161626
5.1642152e-06
1.1602378e-05
-4.5934576e-06
0.082155533
6.383844e-06
1.4033362e-05
-3.6308191e-06
0.0035039247
5.5758726e-07
-2.620368e-06
0.0030474895
5.3125843e-07
-1.4633727e-06
0.0026129429
5.0540138e-07
0.0021091741
4.7000683e-07
1.4975453e-06
0.0021076643
5.6679876e-07
2.7015592e-06
0.0026117439
6.1135987e-07
3.7671975e-06
0.0030464496
6.4394766e-07
4.7909301e-06
0.0035029464
6.7678398e-07
0.082145584
7.8322768e-06
1.8732632e-05
-5.05432e-06
0.082126748
9.5914339e-06
2.8903194e-05
-3.9486622e-06
0.0035018998
8.2355108e-07
-2.8126474e-06
0.0030453507
7.8289495e-07
-1.5479574e-06
0.0026104938
7.4275443e-07
0.0021061128
6.8807721e-07
1.6083472e-06
0.0021045122
8.3333916e-07
2.9517119e-06
0.0026091785
8.9993103e-07
4.1719042e-06
0.0030441849
9.4869671e-07
5.3657829e-06
0.0035007874
9.9794858e-07
0.082087778
1.1640391e-05
5.1096784e-05
-5.8124109e-06
0.082007211
1.3820877e-05
9.6199157e-05
-4.489977e-06
0.0034995871
1.1921129e-06
-3.1494418e-06
0.0030429295
1.1350181e-06
-1.6981283e-06
0.0026077792
1.0795451e-06
0.0021028437
1.0051034e-06
1.8265767e-06
0.0021010589
1.1601812e-06
3.4250134e-06
0.0026062609
1.2422111e-06
4.9182799e-06
0.0030415638
1.3009357e-06
6.3998851e-06
0.0034982883
1.3617464e-06
0.081851521
1.5590369e-05
0.00017690589
-8.5279734e-06
0.081583974
1.6305615e-05
0.0002987974
-6.4338151e-06
0.0034965175
1.4868296e-06
-4.3707803e-06
0.0030397402
1.4346524e-06
-2.2673824e-06
0.0026043315
1.389706e-06
0.0020989312
1.3367343e-06
3.6583972e-06
0.0020954642
1.3253701e-06
7.3705247e-06
0.0026009165
1.3662882e-06
1.1260557e-05
0.0030362569
1.3879618e-06
1.5495591e-05
0.0034928211
1.4174733e-06
0.081189525
1.4765497e-05
0.00044360076
-4.0441089e-05
0.080721318
1.510373e-05
0.00056367204
-2.8521405e-05
0.0034824226
1.6552802e-06
-1.7996883e-05
0.0030270335
1.660277e-06
-8.5751357e-06
0.0025926327
1.6858047e-06
0.0020879642
1.6952799e-06
1.9476228e-05
0.0020703301
1.3393877e-06
4.2415176e-05
0.0025720846
1.5083048e-06
6.8696669e-05
0.0030035116
1.5241422e-06
9.904297e-05
0.0034552129
1.4913584e-06
0.080323277
1.7599684e-05
0.00058733173
-0.00019486966
0.080212704
7.5870826e-05
0.00053475799
-0.00013412657
0.0034069961
5.3488982e-06
-8.2235903e-05
0.0029631402
4.9738208e-06
-3.769082e-05
0.0025384312
4.4040128e-06
0.0020431229
3.4767307e-06
5.5197164e-05
0.0020006882
2.1619875e-06
0.00011703049
0.0024918419
3.907988e-06
0.00018726
0.0029101481
5.1743591e-06
0.00026837915
0.0033448404
6.221868e-06
0.080260098
0.0001282845
0.00059613929
-0.0010060578
0.00040304336
0.0016914401
-0.0007349463
4.0855299e-05
-0.00048290868
4.0387403e-05
-0.00024132073
3.6270391e-05
2.5337639e-05
5.6262954e-05
-0.0020371784
-5.0937619e-06
-4.3376712e-07
0.00011959858
-0.0025315808
-1.2521369e-06
-4.8659674e-06
0.00019156578
-0.0029552553
1.3659951e-06
-8.2622546e-06
0.00027496745
-0.0033979975
3.299616e-06
-1.1413992e-05
-0.080054794
0.00016806554
-0.00038313306
0.00054718322
-0.00018998892
-0.080227534
5.1319981e-05
-0.00019237073
0.00050377933
-0.00013048817
-0.0034502801
6.2506427e-07
-7.8428108e-06
-8.006135e-05
-0.0029992114
1.4923614e-07
-6.6196343e-06
-3.6943702e-05
-0.0025684138
-7.1001731e-07
-5.5738997e-06
-0.0020673675
-2.1491891e-06
-4.6053285e-06
1.8435362e-05
-0.0020864986
-3.8065336e-06
4.5021715e-06
4.0097822e-05
-0.0025907828
-3.8390299e-06
4.5455128e-06
6.5111722e-05
-0.0030248492
-3.9200669e-06
4.5439305e-06
9.426597e-05
-0.0034798964
-4.0500097e-06
4.5120427e-06
-0.080664114
-3.3293406e-05
1.2317868e-05
0.00055182126
-3.7337156e-05
-0.081152377
-4.1075619e-05
2.8246586e-05
0.00053842937
-2.6182077e-05
-0.0034912805
-3.4499266e-06
3.6790275e-06
-1.643335e-05
-0.0030349219
-3.198857e-06
3.5229626e-06
-7.7829194e-06
-0.0025997996