/*--------------------------------*- C++ -*----------------------------------*\
  =========                 |
  \\      /  F ield         | OpenFOAM: The Open Source CFD Toolbox
   \\    /   O peration     | Website:  https://openfoam.org
    \\  /    A nd           | Version:  7
     \\/     M anipulation  |
\*---------------------------------------------------------------------------*/
FoamFile
{
    version     2.0;
    format      ascii;
    class       volScalarField;
    location    "50";
    object      alphat;
}
// * * * * * * * * * * * * * * * * * * * * * * * * * * * * * * * * * * * * * //

dimensions      [1 -1 -1 0 0 0 0];

internalField   nonuniform List<scalar> 
24866
(
9.3765729
9.3845861
9.3808564
9.6004947
9.7936852
9.7911286
9.786361
9.7913662
9.7905082
9.7847988
9.7851044
9.7851474
9.7848262
9.7905478
9.7914634
9.7863434
9.7909232
9.7924423
9.7914307
9.7861173
9.7743228
9.7912418
9.827019
9.8122172
9.7820149
9.7773781
9.7865925
9.8147853
9.8092136
9.7780778
9.7888532
9.7924545
9.7924557
9.788863
9.7781337
9.8092693
9.8149114
9.7867008
9.7772513
9.7818114
9.8121383
9.826966
9.7912305
9.7743258
9.7861465
9.7914894
9.7924658
9.7910114
9.7863544
9.7913735
9.7906455
9.7849395
9.7851014
9.7851185
9.7848962
9.7905063
9.7912267
9.7862245
9.7910863
9.7937409
9.798272
9.7944766
9.7982619
9.7944068
9.787095
9.7903128
9.7971582
9.7931877
9.78428
9.7842659
9.7842946
9.7842844
9.7932482
9.7972157
9.7903215
9.7869415
9.7938098
9.797045
9.7929174
9.7942402
9.7880838
9.7790696
9.7771328
9.7897552
9.7940801
9.8002568
9.7821795
9.7775598
9.786608
9.8008116
9.793985
9.7884744
9.7872847
9.7882201
9.7862889
9.7832079
9.7861869
9.7849606
9.7891775
9.7863372
9.7837612
9.7833703
9.783428
9.7841724
9.7850083
9.7850109
9.7847994
9.7881546
9.7870606
9.7867064
9.7827362
9.7909942
9.7956871
9.7930876
9.788259
9.7855201
9.7845174
9.7839256
9.7843384
9.7847107
9.7846286
9.7840215
9.784488
9.7835947
9.7830424
9.7837853
9.7861342
9.7832541
9.7824261
9.7827003
9.7837514
9.7847784
9.7853896
9.7850914
9.7851955
9.7848324
9.7843424
9.7848052
9.7845201
9.7870651
9.7882625
9.7827456
9.790998
9.7956892
9.6720079
9.6681037
9.5854446
9.5916864
9.5996133
9.5996097
9.5916766
9.5889489
9.5521355
9.6985925
9.7017496
9.5596581
9.5888585
9.5911204
9.584191
9.5536847
9.5051285
9.5229521
9.5768014
9.5898801
9.598267
9.5977644
9.5967927
9.5944266
9.5934265
9.5902812
9.5878128
9.5785107
9.5784643
9.5877986
9.5901696
9.5931168
9.5949003
9.5964739
9.5884009
9.5973786
9.6739438
9.6719239
9.5886
9.5129394
9.5987234
9.6007074
9.5911632
9.7897834
9.7858826
9.7897916
9.7863944
9.783721
9.7860802
9.7832272
9.7823922
9.7826516
9.7836765
9.7846727
9.7852645
9.7853951
9.7855161
9.785201
9.78472
9.7850214
9.7872938
9.7881605
9.7939977
9.7867186
9.5915034
9.6027537
9.6288056
9.6986598
9.5520811
9.5889253
9.3926768
9.3783437
9.3803511
9.3803467
9.3783344
9.3926878
9.3523861
9.3515944
9.3742413
9.3989037
9.373446
9.3465715
9.3304274
9.3497993
9.3798819
9.3777597
9.3791888
9.37782
9.3848595
9.3982844
9.3782106
9.3752636
9.3927898
9.3824026
9.3824717
9.3928977
9.3752355
9.3779147
9.3988175
9.2055021
9.1940271
9.1867473
9.1870221
9.1937172
9.384244
9.5961747
9.5950306
9.5929237
9.5902647
9.5877908
9.5784841
9.5784887
9.5879533
9.5899993
9.5935875
9.5944426
9.5970519
9.597689
9.5984377
9.5898524
9.5768481
9.5230082
9.662055
9.71578
9.7007877
9.5538003
9.5843492
9.5912373
9.5886994
9.5594036
9.7017884
9.6366082
9.559738
9.5561725
9.5111219
9.5890877
9.5839395
9.6214442
9.6669566
9.8008655
9.7866488
9.7775357
9.7884806
9.794068
9.7882306
9.7850238
9.7846436
9.7851026
9.7845039
9.7847884
9.7846771
9.7841634
9.7834016
9.7829434
9.7838326
9.7832045
9.7834047
9.7836845
9.7837643
9.7836137
9.783395
9.7840418
9.784194
9.7863061
9.7897497
9.7771442
9.7832372
9.7834566
9.7849942
9.7837898
9.7830628
9.7827153
9.7826631
9.7829492
9.7838323
9.7863877
9.7837303
9.7824069
9.782444
9.7838054
9.7863701
9.7892221
9.7929502
9.7862239
9.7791077
9.7881331
9.7942849
9.6702033
9.5940635
9.5819876
9.6656702
9.5842407
9.5948539
9.5084083
9.3742868
9.3777176
9.3799372
9.349848
9.330462
9.505305
9.5359265
9.547847
9.6074391
9.6169342
9.6289447
9.5868871
9.5085517
9.5513039
9.3548353
9.346602
9.3734651
9.3989282
9.3742216
9.3515902
9.3524076
9.1713889
9.1994454
9.1875264
9.1864054
9.1864016
9.1875206
9.1994577
9.1713762
9.1654924
9.1819872
9.2084663
9.181462
9.1589157
9.1565857
9.178714
9.1905838
9.1866328
9.184987
9.1840631
9.194211
9.2049937
9.1881096
9.1849027
9.2041306
9.1978606
9.1978211
9.2041527
9.1849382
9.1879018
9.0165794
9.0293771
9.0220728
9.0147217
9.014932
9.0218161
9.0295108
9.2056607
9.3989688
9.3777364
9.3754079
9.3926848
9.382414
9.3825399
9.3929787
9.37514
9.3784491
9.3981892
9.385157
9.3777278
9.3793846
9.1851474
9.1865834
9.1906326
9.1787665
9.156608
9.1589458
9.1815014
9.2085051
9.1819465
9.1654628
8.9991983
9.0058639
9.0239109
9.0159525
9.0142845
9.014281
9.0159484
9.0239212
9.0058537
8.9992239
9.0105387
9.0342646
9.0094403
8.9911737
8.9950427
9.0156038
9.0179057
9.0148812
9.0127245
9.0123111
9.022037
9.0288751
9.0166957
9.0139837
9.0300689
9.02619
9.0262155
9.0301807
9.0140638
8.8586847
8.8605647
8.8690903
8.8651808
8.85879
8.8589416
8.8649792
8.8691904
8.8604316
8.8586978
9.0141333
9.1850598
9.2039995
9.1978844
9.1978992
9.2041735
9.1848495
9.1883801
9.2048798
9.1944771
9.1839778
9.0122421
9.0128429
9.0148317
9.0179423
9.0156515
8.9950526
8.9911965
9.0094805
9.0343045
9.0105009
8.8551883
8.8475083
8.853735
8.8645225
8.8597558
8.8582021
8.8581981
8.8597526
8.86453
8.8537275
8.8475307
8.8552216
8.8749137
8.8533208
8.8387217
8.845336
8.8632543
8.8607575
8.8585968
8.85662
8.8565613
8.8649073
8.8685827
8.860588
8.8585573
8.8708323
8.8685472
8.8686046
8.8709955
8.7262322
8.7172505
8.7185242
8.7238132
8.7222066
8.7171044
8.7172094
8.7220515
8.7238805
8.7184011
8.71721
8.7259387
8.8707186
9.0299462
9.0262195
9.0262896
9.0301595
9.0139842
9.0169649
9.0287722
9.0222521
8.8650733
8.8565087
8.8567011
8.8585504
8.8607819
8.8632943
8.8453393
8.8387389
8.8533602
8.8749525
8.7298323
8.7142087
8.7090122
8.714321
8.7201858
8.7175946
8.7163994
8.7163953
8.7175915
8.7201904
8.714316
8.7090318
8.714237
8.729796
8.7115899
8.7001251
8.7076016
8.7226891
8.7180999
8.7164587
8.7148523
8.7150035
8.7217237
8.7232889
8.7184609
8.7170855
8.7260371
8.7247922
8.7248698
8.5939645
8.5947133
8.5883298
8.5890968
8.592116
8.5919383
8.5881144
8.588185
8.591819
8.5921548
8.5889795
8.5882452
8.5944173
8.5938854
8.7248092
8.8685731
8.8686651
8.8709547
8.8586059
8.8608435
8.8685095
8.7232476
8.7218501
8.7149644
8.7149042
8.7164164
8.7181139
8.7227206
8.7076012
8.7001384
8.7116271
8.5827769
8.5978616
8.585937
8.5824412
8.586695
8.5893491
8.5881263
8.5873429
8.5873388
8.588123
8.5893512
8.5866919
8.5824585
8.5859604
8.5978285
8.5827424
8.5738729
8.5812712
8.5937119
8.5884519
8.5870819
8.5858531
8.5861096
8.5912839
8.5915664
8.5889548
8.5881345
8.5944989
8.5938752
8.4742042
8.4742993
8.4747166
8.4702571
8.4706246
8.4721255
8.4727742
8.4700695
8.4701156
8.4726811
8.4721409
8.4705098
8.4701387
8.4744261
8.4742097
8.4743213
8.5939961
8.7249139
8.7261806
8.7171739
8.7187
8.5891782
8.591554
8.5913809
8.5860812
8.5858838
8.5870436
8.5884576
8.5937352
8.5812688
8.5738834
8.4582505
8.465042
8.4774317
8.4685829
8.4662537
8.4694857
8.4701048
8.4696899
8.4692782
8.4692744
8.4696864
8.4701048
8.469484
8.4662687
8.4686019
8.4774017
8.4650103
8.458242
8.4651389
8.4752561
8.4700172
8.4687724
8.4678552
8.4681448
8.4719854
8.4715455
8.4704121
8.470036
8.4744911
8.3642433
8.3641191
8.3642177
8.3644772
8.3613987
8.3614614
8.3619837
8.3630639
8.361273
8.3613019
8.3629893
8.3619803
8.3613466
8.3612552
8.3641951
8.364121
8.3642302
8.3644117
8.4746547
8.5946552
8.5882545
8.4701792
8.470622
8.4715573
8.472062
8.4681247
8.467871
8.4687377
8.4700165
8.4752722
8.4651354
8.3578083
8.3515879
8.3567001
8.3668347
8.3604411
8.3589099
8.3612292
8.3605962
8.3606182
8.3605017
8.360498
8.3606143
8.3605946
8.3612284
8.3589229
8.3604564
8.3668077
8.3566713
8.3515809
8.3578125
8.3659556
8.3610468
8.3598435
8.359151
8.3594248
8.3621749
8.3613723
8.3611865
8.3611539
8.2600998
8.2622365
8.2621759
8.2622762
8.2624766
8.2603666
8.2602038
8.2601219
8.2613795
8.2603001
8.2603172
8.2613177
8.2601034
8.2600874
8.2602052
8.2622042
8.2621754
8.26228
8.2624072
8.2602709
8.3613137
8.3613854
8.3614036
8.3622378
8.3594107
8.3591567
8.3598117
8.3610411
8.3659656
8.2645312
8.2580242
8.2525078
8.2562919
8.2645688
8.2600833
8.259092
8.2606353
8.2592655
8.259484
8.2595796
8.2595762
8.2594798
8.2592628
8.260635
8.2591031
8.2600953
8.2645446
8.2562658
8.2525019
8.2580291
8.2645264
8.2600653
8.2588555
8.2583057
8.2585316
8.2604201
8.2594809
8.2598747
8.1653689
8.1657807
8.1672688
8.1672213
8.1673223
8.1675135
8.1660676
8.1657443
8.1653125
8.1665878
8.166041
8.1660498
8.1665346
8.1652818
8.1656255
8.1658938
8.1672515
8.1672193
8.1673181
8.1674399
8.1659588
8.1655514
8.2600646
8.2595273
8.2604742
8.2585221
8.2583045
8.2588259
8.2600558
8.1659027
8.1699043
8.1647553
8.1599228
8.1626661
8.1694248
8.1663921
8.1657589
8.1666665
8.1648971
8.1651604
8.1653931
8.1653898
8.165156
8.1648935
8.1666664
8.1657684
8.1664015
8.1694031
8.1626426
8.159918
8.1647606
8.1699039
8.1659153
8.164672
8.164198
8.1643576
8.1655829
8.1646452
8.0759256
8.0768128
8.0773539
8.0784126
8.0783572
8.0784582
8.0786607
8.0776591
8.0772275
8.076615
8.0778116
8.0776487
8.0776518
8.077764
8.0765744
8.077106
8.0774774
8.0784093
8.0783546
8.0784467
8.0785825
8.0775358
8.0769891
8.0759927
8.1647034
8.1656313
8.1643515
8.1641922
8.164644
8.0763916
8.0776929
8.0812394
8.0771964
8.0730008
8.0749359
8.0804589
8.0785124
8.0781091
8.0785124
8.076562
8.0767787
8.0770867
8.0770837
8.0767742
8.0765578
8.0785124
8.0781171
8.0785195
8.0804395
8.0749149
8.0729969
8.0772023
8.0812427
8.077708
8.0764184
8.0759706
8.0760552
8.0767809
7.993324
7.9925943
7.9935371
7.9941623
7.9949477
7.9948806
7.9949812
7.9951984
7.9944842
7.9939848
7.9933015
7.9943648
7.9944671
7.9944662
7.9943207
7.9932529
7.9938607
7.9942978
7.9949574
7.9948781
7.9949633
7.9951152
7.9943456
7.9937081
7.992668
7.9933671
8.076826
8.0760516
8.0759616
7.9929478
7.9933884
7.9947376
7.9978664
7.9947172
7.9911009
7.9924155
7.9969342
7.9957843
7.9955204
7.995535
7.9935431
7.9936619
7.993998
7.9939952
7.9936573
7.9935386
7.9955351
7.9955271
7.9957898
7.996917
7.9923969
7.9910979
7.9947239
7.9978729
7.9947548
7.9934145
7.9929589
7.9929667
7.9145621
7.914653
7.9140693
7.9149999
7.9156749
7.9162968
7.9162243
7.9163241
7.9165495
7.9160115
7.9154748
7.91479
7.915692
7.9159682
7.9159644
7.9156498
7.914735
7.9153485
7.9158232
7.9163189
7.9162225
7.9163006
7.9164609
7.9158577
7.915166
7.9141478
7.914695
7.9145617
7.9929649
7.9971208
8.0007893
7.9972229
7.9982186
8.0002743
7.9990008
7.9996555
8.0002167
8.0010542
8.0011064
7.9994851
7.9208087
7.9174917
7.9172155
7.9152688
7.9152636
7.9155941
7.9155914
7.9152592
7.9152645
7.917216
7.917498
7.9176853
7.9182455
7.9145418
7.9137109
7.9168164
7.9192491
7.9165043
7.915113
7.9146284
7.8405306
7.8403954
7.8402979
7.839867
7.8407444
7.8414443
7.8419801
7.841913
7.8420117
7.8422339
7.8417935
7.8412412
7.8405968
7.8413254
7.8417072
7.8417015
7.8412844
7.8405366
7.8411133
7.8416052
7.8420133
7.8419121
7.8419832
7.84214
7.8416251
7.840906
7.8399489
7.8403393
7.8403959
7.8405167
7.9146157
7.9150872
7.916485
7.9192396
7.9168084
7.9137123
7.9145576
7.9182601
7.9176806
7.8437621
7.8436019
7.8431146
7.8412648
7.8411247
7.8414273
7.8414251
7.8411211
7.8412616
7.8431166
7.8436094
7.8437681
7.8439356
7.8408963
7.8404121
7.8430526
7.8449119
7.8424969
7.8410558
7.7708485
7.7702777
7.7700802
7.7698525
7.7695748
7.770376
7.7710837
7.7715892
7.7715412
7.7716387
7.7718435
7.7714431
7.7708899
7.7703096
7.7708609
7.7712986
7.7712914
7.7708207
7.7702455
7.7707611
7.7712566
7.7716328
7.7715416
7.7716058
7.7717442
7.7712611
7.7705329
7.7696586
7.7698932
7.7700808
7.7702617
7.7708201
7.8410295
7.842475
7.8448986
7.8430418
7.8404103
7.8409076
7.8439459
7.7735755
7.7736526
7.7734858
7.7728502
7.7711263
7.7708486
7.7711098
7.7711085
7.7708474
7.7711269
7.7728573
7.773499
7.7736651
7.7735743
7.771077
7.7708416
7.7730651
7.7744654
7.7723396
7.705688
7.7041419
7.7035244
7.7032715
7.7029563
7.7028317
7.7035447
7.7042493
7.7047685
7.7047554
7.7048515
7.7050225
7.7046166
7.7040709
7.7035672
7.703939
7.7043972
7.7043889
7.7038993
7.7035002
7.7039421
7.7044333
7.7048214
7.7047572
7.7048148
7.7049179
7.7044222
7.7036965
7.7029159
7.7029952
7.7032702
7.703504
7.7041072
7.7056514
7.7723131
7.7744454
7.7730475
7.7708322
7.7710789
7.7047348
7.7067878
7.7070209
7.706817
7.7060816
7.7044989
7.7040822
7.7042958
7.7042965
7.7040871
7.7045093
7.7061025
7.7068472
7.7070523
7.7068085
7.7047544
7.704687
7.7065305
7.7075614
7.6438834
7.6422285
7.640614
7.6399499
7.639647
7.6392748
7.6393073
7.6399259
7.6406218
7.6411935
7.6412337
7.6413281
7.6414463
7.6409948
7.6404601
7.640039
7.6402257
7.6406797
7.6406708
7.6401864
7.63997
7.6403323
7.6408157
7.6412549
7.6412369
7.6412883
7.6413367
7.6407892
7.6400722
7.6393899
7.63931
7.6396402
7.6399195
7.6405641
7.6421691
7.6438169
7.7075271
7.7064959
7.7046583
7.6415929
7.6415662
7.6432542
7.6435602
7.6432893
7.6424904
7.6410566
7.6404973
7.6406625
7.640668
7.6405167
7.6410908
7.6425451
7.6433619
7.6436385
7.6433258
7.6416355
7.641667
7.6431542
7.5826597
7.5831333
7.5816642
7.5799546
7.5792415
7.5788916
7.578483
7.5786838
7.5792046
7.57989
7.5805527
7.5806664
7.5807591
7.5808041
7.5802667
7.5797428
7.5794071
7.5793952
7.5798281
7.579819
7.5793566
7.5793373
7.5796167
7.5800926
7.5806218
7.5806721
7.580717
7.5806896
7.5800512
7.5793447
7.5787629
7.5785112
7.5788728
7.5791902
7.5798715
7.5815556
7.582997
7.5824956
7.6430791
7.6465894
7.648178
7.6493679
7.6499646
7.6489077
7.6463236
7.5860931
7.5826005
7.581765
7.580485
7.5797732
7.5798946
7.5799107
7.5798253
7.5805722
7.5818956
7.5827691
7.5831555
7.582844
7.5814529
7.5815217
7.5240156
7.5247924
7.5250335
7.5237129
7.5218624
7.521091
7.520692
7.5202595
7.5206502
7.52107
7.5217469
7.5225433
7.5227542
7.522845
7.5227935
7.5221262
7.521609
7.5213605
7.5211254
7.5215246
7.5215152
7.5210874
7.5212907
7.5214851
7.5219577
7.5226205
7.522763
7.5228015
7.5226747
7.5219021
7.5212037
7.5207234
7.5202756
7.5206498
7.5209983
7.5217119
7.5235053
7.5247566
7.5244465
7.5236354
7.5813465
7.581274
7.5826599
7.5829711
7.52496
7.52445
7.5235966
7.5224752
7.5215922
7.5216787
7.521716
7.5217106
7.5226711
7.5238824
7.5248154
7.5253606
7.5251117
7.5239677
7.4689942
7.4689612
7.4693417
7.4693456
7.4681257
7.4660617
7.46521
7.4647525
7.464302
7.4649162
7.4652307
7.465906
7.4668873
7.4672203
7.4673097
7.4671354
7.4662874
7.465769
7.4656095
7.4651123
7.4654668
7.4654571
7.4650745
7.4655397
7.4656475
7.4661251
7.4669731
7.4672339
7.4672658
7.4670129
7.4660559
7.4653588
7.4649823
7.4642979
7.4646687
7.4650424
7.4657868
7.4677344
7.468805
7.4686534
7.468195
7.4681774
7.5235674
7.5247014
7.4690986
7.4692532
7.4685561
7.4676955
7.4667398
7.4656548
7.4657191
7.4657964
7.4658974
7.4671381
7.4682729
7.4692923
7.4700617
7.469935
7.4172157
7.4164437
7.4162686
7.4161953
7.4159238
7.4147358
7.412355
7.4113819
7.4108462
7.4103788
7.4112615
7.4114672
7.4121531
7.413376
7.4138602
7.413949
7.4136243
7.4125385
7.4120058
7.4119371
7.4111263
7.4114246
7.4114151
7.4110887
7.411867
7.4118876
7.4123831
7.4134721
7.4138793
7.4139045
7.4134976
7.4122994
7.4115912
7.4113186
7.4103464
7.4106978
7.4110924
7.4118706
7.4140298
7.4149292
7.4149154
7.4148355
7.4149102
7.415649
7.4156538
7.4147123
7.4138457
7.4130612
7.4117339
7.4117901
7.4119352
7.4121866
7.4138053
7.4149247
7.4160869
7.4171619
7.3667591
7.3670505
7.3664172
7.366039
7.3654417
7.3648195
7.3635539
7.3607312
7.3595764
7.3589314
7.3584475
7.3596448
7.3597451
7.3604633
7.361983
7.3626445
7.3627356
7.3622357
7.3608582
7.3602907
7.3603105
7.3591332
7.3593622
7.359352
7.3590948
7.3602392
7.3601735
7.3607078
7.3620922
7.3626705
7.3626878
7.3621031
7.3606081
7.3598677
7.3596947
7.3583814
7.3586961
7.3591089
7.3599309
7.3623625
7.363111
7.3632274
7.3635538
7.3637518
7.3643321
7.3641478
7.3629091
7.3620242
7.3614067
7.3597936
7.3598524
7.3601022
7.3605651
7.3626827
7.3638906
7.3652869
7.3173295
7.3192786
7.3198408
7.3193224
7.3187057
7.317522
7.3164181
7.3148988
7.3115033
7.3100927
7.3093071
7.3088124
7.3103486
7.3103762
7.3111642
7.3130136
7.3138683
7.3139635
7.3132775
7.3115785
7.3109434
7.3110241
7.3094613
7.309611
7.3096004
7.3094213
7.310951
7.3108263
7.3114322
7.3131433
7.3139044
7.3139123
7.313135
7.3113131
7.3105059
7.310403
7.3087231
7.3089851
7.309415
7.3102958
7.3130397
7.3136859
7.3139568
7.3146901
7.3150142
7.31545
7.3150552
7.3134931
7.3125581
7.3120714
7.3101455
7.3102052
7.3105931
7.3113388
7.314081
7.315552
7.2706915
7.273121
7.275598
7.2764125
7.2759855
7.2751451
7.2733503
7.2715097
7.2694124
7.2653329
7.2635984
7.2626698
7.2621732
7.2640053
7.2640729
7.2649936
7.2671479
7.2682041
7.2683061
7.2674339
7.2654446
7.2646873
7.2647268
7.2628369
7.2629166
7.2629046
7.2627933
7.2646482
7.2645661
7.2652952
7.2673009
7.2682491
7.2682485
7.2672739
7.2651567
7.2642245
7.2640855
7.2620968
7.2623079
7.2627511
7.2636979
7.2667374
7.2674479
7.2679432
7.268997
7.2693745
7.2696744
7.2690831
7.2672359
7.2661838
7.2656973
7.2634894
7.2635398
7.2640662
7.2651592
7.2686387
7.2269832
7.2303749
7.2339245
7.2368929
7.2378548
7.2375014
7.2365429
7.2341894
7.2311647
7.2277402
7.2228864
7.220824
7.2197888
7.2192787
7.2211493
7.2216559
7.2227823
7.2250507
7.226436
7.2265643
7.2253845
7.2232819
7.2223355
7.2219585
7.220027
7.2200956
7.2200824
7.2199792
7.221875
7.222212
7.2231282
7.2252364
7.2264931
7.2265093
7.2252128
7.2229701
7.2218465
7.2212999
7.2192817
7.2195009
7.2199599
7.220944
7.2240872
7.2254215
7.2262336
7.2273133
7.2275246
7.2277966
7.2269745
7.2250439
7.2237434
7.2228166
7.2205736
7.2206195
7.2212398
7.2226757
7.1841352
7.1891351
7.1958
7.2015146
7.2044347
7.2052619
7.2049829
7.2041995
7.2018294
7.1965698
7.1899023
7.1843751
7.182294
7.181233
7.1806141
7.1818343
7.183859
7.1852445
7.1871186
7.1892341
7.1893412
7.1874627
7.1857894
7.1845986
7.1827509
7.1814526
7.1816902
7.1816767
7.1814016
7.1826629
7.184479
7.1856349
7.1873415
7.1893028
7.1892895
7.1872735
7.185466
7.1840987
7.1820901
7.1807526
7.1811592
7.1816618
7.1824908
7.1853396
7.1889205
7.1898842
7.1900621
7.1899022
7.1906114
7.1891119
7.18748
7.1858608
7.183501
7.1818929
7.1820298
7.1826499
7.1536511
7.1540207
7.1581881
7.1683787
7.1776542
7.1794911
7.1803554
7.1801014
7.1793676
7.178041
7.1691464
7.1590225
7.1543355
7.1534396
7.1522843
7.1510061
7.1523473
7.15366
7.155101
7.1566979
7.1574733
7.1575993
7.1570859
7.155682
7.1544413
7.1533479
7.1519489
7.1528709
7.152852
7.1518828
7.1532409
7.1543132
7.1555528
7.1569404
7.1575579
7.1575565
7.1568813
7.1553732
7.1539506
7.1526678
7.1512899
7.1523916
7.1531613
7.1533257
7.156926
7.1633474
7.1655757
7.1620919
7.1603297
7.1593963
7.1588116
7.1573403
7.1556258
7.1540312
7.1522044
7.15305
7.1298897
7.1303215
7.1312846
7.1349367
7.1373306
7.1420631
7.1462422
7.1459513
7.1423951
7.1378302
7.1358485
7.1316857
7.1302059
7.1291525
7.128529
7.1313958
7.1307339
7.132056
7.1352612
7.1360049
7.1361384
7.1356531
7.1326319
7.1315458
7.132438
7.1296126
7.1298502
7.1298379
7.1295501
7.1323537
7.1314096
7.1324942
7.1355126
7.1360964
7.1361079
7.1354542
7.1323137
7.1310911
7.131777
7.1289617
7.1295109
7.1303822
7.1314916
7.1358193
7.1362809
7.1363762
7.1392752
7.1397935
7.138405
7.1375156
7.1343911
7.1326816
7.133076
7.1297206
7.1355111
7.1348727
7.1563405
7.2018925
7.2747886
7.3613008
7.4164413
7.4094603
7.3491928
7.268682
7.2014473
7.1560768
7.1345554
7.1351495
7.1520137
7.2021907
7.3037269
7.4557666
7.611908
7.6908106
7.6956146
7.6211085
7.4605046
7.3027686
7.2005642
7.1533073
7.1373878
7.1351068
7.1463939
7.1475131
7.1576946
7.1614948
7.17262
7.1607816
7.1564455
7.1781876
7.160458
7.1715922
7.1595896
7.1456187
7.1461135
7.1560234
7.1557064
7.1735378
7.1523392
7.1765852
7.2139141
7.2398009
7.2325781
7.2029979
7.1714509
7.1535773
7.1367631
7.135293
7.1464219
7.1464364
7.1565384
7.1716727
7.1563504
7.1605424
7.1601306
7.1739972
7.1946267
7.172418
7.1824766
7.1710434
7.1715928
7.1719358
7.163026
7.1511747
7.1503907
7.1632815
7.1754989
7.1814001
7.1909628
7.1740654
7.17678
7.1650783
7.1510467
7.1631226
7.1643052
7.1565566
7.1418322
7.1443431
7.1537933
7.1628831
7.1693863
7.1800118
7.1667435
7.1524549
7.1623428
7.1787069
7.209027
7.2008568
7.2282241
7.2028095
7.1920675
7.2086843
7.1933567
7.2314449
7.2737611
7.2903529
7.2728624
7.2302575
7.2485754
7.29599
7.2422827
7.2842116
7.3062412
7.2786144
7.2371625
7.246784
7.2876638
7.2934501
7.2531889
7.2167121
7.1859851
7.2642373
7.2344884
7.1978455
7.302729
7.2212713
7.2541693
7.3380873
7.4393447
7.2670208
7.2969073
7.5081599
7.4595733
7.3974179
7.7007682
7.5185653
7.3345078
7.2210893
7.1754797
7.2065338
7.2549196
7.3365749
7.233566
7.209111
7.1810856
7.1576265
7.1609775
7.1639434
7.1636739
7.1610968
7.1581556
7.1815908
7.1889102
7.1939363
7.1940942
7.188866
7.2193025
7.2252308
7.2950163
7.2718076
7.2238597
7.1971709
7.3361813
7.5956161
7.7856901
7.7887395
7.8017944
7.8008871
7.7867766
7.7820151
7.7360779
7.6485978
7.6053299
7.606564
7.6512081
7.7453783
7.7929223
7.8007444
7.815174
7.8159361
7.8022191
7.7957758
7.749007
7.6570767
7.6129565
7.6132252
7.4594344
7.275721
7.177533
7.1435573
7.1411084
7.1563355
7.164972
7.1649224
7.1561806
7.1409227
7.1433482
7.1771809
7.2757303
7.460756
7.6164854
7.6170592
7.6615564
7.7519031
7.8000652
7.8068605
7.8222108
7.8226195
7.8081541
7.8036264
7.7550555
7.6622118
7.6160507
7.6131425
7.6559754
7.7411201
7.8671772
7.9849154
8.1167831
8.1822642
8.1955814
8.2243532
8.2249938
8.1977735
8.1846177
8.1194908
7.9901096
7.8749636
7.7533498
7.6208341
7.3639501
7.2159047
7.2450051
7.4235279
7.697883
7.8075069
7.7998383
7.931267
8.0664732
8.1835995
8.2317173
8.3137518
8.3155332
8.3732239
8.3882547
8.4125968
8.4117395
8.3869121
8.3730262
8.3139145
8.3126082
8.2304243
8.1802689
8.3113427
8.4045453
8.45289
8.5313133
8.5673416
8.5963527
8.5965053
8.5678521
8.5319765
8.4538983
8.4059312
8.3127432
8.3143496
8.194913
8.0299615
7.8963223
7.9117923
7.821871
7.8218868
7.6976955
7.4234163
7.2449737
7.2160798
7.3640336
7.6194937
7.7978934
7.8067308
7.8958463
7.9111939
8.0557286
8.0562825
8.2229268
8.3859665
8.3706628
8.5310864
8.4533733
8.5830287
8.6860597
8.7458505
8.778868
8.7789777
8.7458407
8.6851205
8.5825541
8.4523125
8.3132142
8.1930338
8.3705128
8.5305892
8.6845851
8.7967936
8.8686384
8.9051872
8.9046547
8.8683992
8.7974673
8.6855063
8.745754
8.5665474
8.5956587
8.4098626
8.4100409
8.222434
8.3851669
8.5658127
8.5951983
8.7777882
8.778789
8.9048237
8.868822
8.9472886
8.9857761
8.9862539
8.9470591
8.8675755
8.7450383
8.5660044
8.3851925
8.2206875
8.4087631
8.5940218
8.7773758
8.9033784
8.9846991
9.0248855
9.0246741
8.9850394
8.9840433
8.9036725
8.8664726
8.7437167
8.6831242
8.5292731
8.3702667
8.1941047
8.029174
8.0635858
7.9290646
7.871951
7.750313
7.6571286
7.7924922
7.9031366
7.9864458
8.1146289
8.1812942
8.3110465
8.3123934
8.4512143
8.5790124
8.6813778
8.7936893
8.8649625
8.9435369
8.983073
9.023613
9.0235135
8.9834605
8.9029859
8.7765515
8.5939589
8.4081699
8.2196665
8.3828067
8.5642863
8.7431379
8.8659909
8.9444406
8.9832006
8.9015745
8.9009082
8.7735764
8.7405942
8.5612631
8.5261884
8.4492633
8.4026151
8.3094033
8.2275367
8.1787939
8.1884736
8.3087474
8.365929
8.3798217
8.4032035
8.5889366
8.5890268
8.7733068
8.7413741
8.8657581
8.7945823
8.6823719
8.5279792
8.368225
8.1898307
8.3098207
8.4494142
8.5788159
8.681315
8.5264749
8.5606191
8.3789428
8.4023261
8.2137998
8.2140197
8.0472581
8.0224226
8.0605374
7.9847209
7.870161
7.7925008
7.7189938
7.7515543
7.8083684
7.9019006
7.948148
7.8976061
7.909379
7.909709
7.8978869
7.9496887
7.9037407
7.8111602
7.66126
7.7973402
7.7236666
7.797494
7.8747036
7.9323279
7.8962428
7.912457
7.9116704
7.8957431
7.9328087
7.8748418
7.795442
7.7211462
7.7933815
7.9046439
7.9891106
8.0664792
8.0303049
8.0563908
8.0581372
8.0311864
8.0675746
7.9900561
7.9079813
7.8894647
7.8112264
7.9028221
7.9493621
7.895972
7.9084185
7.9072962
7.8949603
7.9488909
7.9021337
7.8083584
7.751354
7.8031413
7.8071776
7.8856796
7.9822531
7.9772515
8.0472013
8.0026952
7.9449804
8.0252783
8.1870756
8.1613975
8.1624319
8.1065837
7.9774769
7.8957689
7.9702507
7.9401032
7.9219866
8.0594749
8.0240625
7.8859312
7.900519
8.049637
8.0495003
7.8996774
7.8840768
8.0217712
8.0558704
8.1758246
8.2242383
8.3068847
8.3078155
8.3662219
8.1862674
8.174846
8.1092956
7.9786345
7.862166
7.918298
7.9375576
7.8869787
7.8991532
7.8998244
7.8882883
7.939811
7.996725
8.0403991
8.1608644
8.1985333
8.1221582
8.1190185
8.1937247
8.2732901
8.35883
8.2724584
8.1926283
8.2837412
8.3013243
8.1740582
8.2615852
8.3222966
8.2316956
8.1687716
8.3828846
8.4756754
8.3939527
8.5351736
8.3942247
8.2616006
8.1598118
8.1729115
8.1680389
8.3001619
8.3831081
8.2289579
8.3198578
8.4759968
8.5073106
8.3317793
8.1842937
8.0190639
8.0190847
7.9385942
7.9948817
8.0372473
7.9673138
7.8915176
7.972556
8.1011627
8.1572554
8.1565143
8.1833707
8.3549602
8.3556819
8.2644003
8.2413774
8.2265735
8.410468
8.4393367
8.5359837
8.7366727
8.7037995
8.6428675
8.5774498
8.4599547
8.5770362
8.6424653
8.7597673
8.7029712
8.7789908
8.6358112
8.4103291
8.243274
8.3324684
8.3584774
8.2665164
8.22858
8.4383131
8.5373661
8.507063
8.7036768
8.7378815
8.6706376
8.8174145
8.8708571
8.8334233
8.9153529
8.8330771
8.7787906
8.6361621
8.6701142
8.8162379
8.8689804
8.9548728
8.9058338
8.8642008
8.9070515
8.9559683
8.9967998
8.9502467
8.8990593
8.8535561
8.7599325
8.6100771
8.573825
8.51901
8.3957887
8.3385546
8.4642626
8.5883327
8.4646737
8.5192558
8.6425305
8.7202613
8.6649129
8.5161776
8.5530125
8.7046215
8.646125
8.4886867
8.1236312
8.0959337
8.0896589
8.129657
8.1153365
8.1015185
8.1413525
8.1197291
8.1402109
8.1417188
7.9462039
8.0264103
8.0032299
8.0487518
7.9780731
7.9833807
8.1106615
8.1654496
8.1639556
8.187486
8.3583888
8.2664803
8.2289367
8.2426034
8.3334169
8.508504
8.5379822
8.4391409
8.4104188
8.3850658
8.2326659
8.3222446
8.2636274
8.1754706
8.1708203
8.3016647
8.3952388
8.4770692
8.6439433
8.7047597
8.737876
8.6708071
8.6366624
8.7796018
8.8173519
8.87072
8.8334338
8.7609738
8.7043751
8.5775895
8.4616068
8.5362416
8.644115
8.5790743
8.6375239
8.7800737
8.8659027
8.907322
8.9556755
8.9154525
8.9555156
8.9966996
8.9502134
8.9070151
8.8180186
8.8709607
8.8338607
8.7046418
8.7383043
8.6720902
8.44102
8.4121533
8.3852507
8.3037348
8.2868255
8.1970911
8.2749729
8.2007901
8.1653396
8.1249842
8.1228052
8.1956424
8.2745545
8.3605085
8.3951795
8.2634203
8.1636873
8.1756088
8.171785
8.2311132
8.3215692
8.4764148
8.5076511
8.3336784
8.1883275
8.2438431
8.2303541
8.265496
8.3576363
8.5377144
8.5378978
8.7375495
8.8703701
8.9548392
8.9959309
8.9955521
8.9536228
8.869172
8.7359684
8.5359398
8.4381941
8.2629742
8.2257347
8.2382855
8.3289902
8.5050271
8.4074233
8.3806958
8.2269655
8.3171971
8.473001
8.3912376
8.2583398
8.1693858
8.1645778
8.2971792
8.4571633
8.5750466
8.634098
8.6691914
8.8155414
8.7769509
8.8307926
8.7017885
8.6404629
8.7576339
8.7005114
8.5738301
8.639487
8.5324224
8.3908935
8.4493792
8.4003206
8.3071633
8.26902
8.1900777
8.1152343
8.2807086
8.3556856
8.2688248
8.1567313
8.1933204
8.1169075
8.1898968
8.1687798
8.2975381
8.1641396
8.378604
8.4719107
8.3155343
8.1546237
8.2565381
8.2247262
8.2366481
8.4051435
8.6322073
8.7756966
8.8624197
8.9048475
8.9490258
8.9047378
8.9530783
8.9126201
8.8303794
8.8679622
8.814257
8.6668465
8.7330325
8.6993523
8.5011369
8.5318321
8.4338667
8.2231327
8.2573759
8.1787154
8.3251623
8.3497894
8.3507405
8.5322367
8.7335276
8.8677494
8.9532943
8.9050676
8.9498284
8.906656
8.8636471
8.9124116
8.832466
8.7785537
8.8167064
8.6712266
8.6365488
8.7028914
8.6421157
8.7577875
8.8309205
8.7773732
8.8146895
8.6673688
8.6335925
8.6998001
8.6404466
8.575838
8.701412
8.5772758
8.4596597
8.5335982
8.3942034
8.4761053
8.5077058
8.411401
8.4404335
8.2296173
8.265656
8.1880562
8.3574105
8.3325467
8.2427504
8.2315209
8.3841496
8.1698326
8.3012415
8.1736727
8.1629054
8.3210995
8.2619709
8.2740615
8.359288
8.3920859
8.4729209
8.5029296
8.4065047
8.4344515
8.2241175
8.258831
8.1795599
8.3269053
8.2370287
8.2276694
8.380915
8.1669012
8.2991148
8.1705505
8.1572731
8.3168264
8.2584364
8.2724627
8.1611147
8.1943724
8.2855507
8.1201963
8.1956374
8.163783
8.197886
8.1229945
8.1070947
8.1035795
8.1443077
8.1234654
8.1430323
8.1431592
8.1243605
8.1458027
8.1063548
8.1451621
8.1234808
8.0920692
8.0973973
8.1242805
8.0818274
8.0011523
8.071576
7.9859016
7.8615196
7.502775
7.2894803
7.2151457
7.1849262
7.254493
7.2232409
7.2603315
7.2105888
7.201826
7.2260364
7.2029904
7.2536355
7.3345679
7.4316969
7.3861416
7.4526705
7.7790814
7.783134
7.8637487
7.7713407
7.5714283
7.3737788
7.5672774
7.5109179
7.450505
7.2660609
7.173396
7.198069
7.2966801
7.3784889
7.4316846
7.4946554
7.4307335
7.3801234
7.6627692
7.6614356
7.3793437
7.2129453
7.2131264
7.2409524
7.2407649
7.2948719
7.2250741
7.2192775
7.2717627
7.2239031
7.1971832
7.3353369
7.5930698
7.4470493
7.2651708
7.1736057
7.153748
7.2003886
7.3008454
7.4559414
7.6158179
7.6935117
7.6941284
7.618016
7.4588686
7.3048133
7.2028069
7.152558
7.1358573
7.1349549
7.1564632
7.2027259
7.2755224
7.3631056
7.4217319
7.4215572
7.3623427
7.2742028
7.2012205
7.1557972
7.135149
7.1376376
7.1475082
7.1463847
7.1564347
7.1607451
7.1614554
7.1725376
7.1577151
7.1932751
7.2068969
7.2338944
7.2095795
7.243895
7.2536919
7.2598425
7.2600111
7.2537581
7.2434344
7.2828177
7.326138
7.3727697
7.3930157
7.3759823
7.3671502
7.3190886
7.3340876
7.3184623
7.366747
7.3802056
7.4163586
7.375203
7.328448
7.3479899
7.3234369
7.3710964
7.3778634
7.3313966
7.3364428
7.3820874
7.445702
7.4238193
7.3920421
7.4816983
7.4480831
7.3754113
7.3359639
7.4142792
7.3770324
7.2662822
7.307451
7.3458095
7.3717414
7.3343868
7.556509
7.4821909
7.5197911
7.5975895
7.6292922
7.4082237
7.3840672
7.5502745
7.5775839
7.6557272
8.1262427
7.970007
7.7137039
7.5156297
7.4166507
7.3758973
7.3296923
7.286089
7.2450495
7.2970094
7.3367052
7.4154959
7.3087405
7.2700823
7.3780865
7.4819441
7.3112472
7.3485438
7.2922245