/*--------------------------------*- C++ -*----------------------------------*\
  =========                 |
  \\      /  F ield         | OpenFOAM: The Open Source CFD Toolbox
   \\    /   O peration     | Website:  https://openfoam.org
    \\  /    A nd           | Version:  7
     \\/     M anipulation  |
\*---------------------------------------------------------------------------*/
FoamFile
{
    version     2.0;
    format      ascii;
    class       volScalarField;
    location    "50";
    object      k;
}
// * * * * * * * * * * * * * * * * * * * * * * * * * * * * * * * * * * * * * //

dimensions      [0 2 -2 0 0 0 0];

internalField   nonuniform List<scalar> 
24866
(
3468.072
3534.7261
3544.0131
4134.4709
4720.5241
4709.4529
4668.8074
4720.9909
4726.3623
4663.236
4689.3412
4689.6803
4664.0807
4726.9141
4720.4742
4670.7036
4704.9732
4722.0258
4706.6943
4690.9981
4624.2183
4736.6222
4869.5677
4808.5674
4680.6343
4596.4658
4694.8289
4817.7239
4804.8805
4641.1206
4711.5851
4709.631
4709.624
4711.5909
4641.3288
4804.969
4818.2785
4695.3622
4595.9066
4679.9612
4808.3831
4869.5518
4736.6736
4624.2302
4691.5317
4706.4069
4722.7645
4704.3669
4671.159
4719.2838
4727.8536
4663.8192
4689.3485
4689.6094
4664.4659
4725.9341
4721.4811
4667.8369
4710.69
4719.4647
4752.6097
4724.5009
4753.0996
4755.0715
4682.0334
4715.4453
4776.2417
4764.5619
4682.5532
4685.1264
4685.3532
4682.9458
4764.7575
4776.2908
4715.6653
4681.1982
4751.0709
4750.6712
4715.2509
4735.3382
4728.9792
4629.0707
4642.9319
4701.2066
4720.5182
4783.7917
4715.451
4654.9225
4727.1821
4792.2181
4720.7442
4663.0081
4703.5675
4707.4542
4700.5279
4683.5393
4671.6706
4691.7128
4686.4664
4696.1158
4692.3834
4695.6371
4691.4891
4697.8625
4702.1258
4702.1823
4700.0027
4704.9692
4698.6881
4691.2085
4642.2
4744.1191
4740.8903
4714.0633
4679.3663
4693.9759
4695.7228
4698.2191
4701.9711
4704.2195
4703.7524
4700.4511
4703.6659
4698.5237
4692.9097
4689.9203
4676.2493
4682.5734
4685.4608
4692.5695
4699.8323
4705.2313
4708.193
4706.7164
4707.282
4705.407
4701.9913
4700.0328
4695.7363
4698.7156
4679.3958
4642.2408
4744.1124
4740.8763
4537.8761
4539.0651
4169.7383
4112.9496
4124.4621
4124.4622
4112.9427
4052.9218
4066.3554
4590.7975
4589.635
4084.2938
4101.8258
4012.0464
4082.5031
4063.0196
3947.5415
3918.9627
4025.9226
4095.7862
4121.6585
4133.464
4110.7667
4071.3112
4118.4852
4120.6357
4047.9969
4047.7706
4047.315
4046.9552
4119.8234
4118.5372
4070.4438
4113.8102
4179.8774
4190.8577
4548.8811
4550.8815
4166.1739
4015.2357
4177.9446
4123.9048
4074.2237
4688.6136
4695.4126
4688.6252
4696.1383
4689.4324
4675.7272
4682.3906
4685.2393
4692.2844
4699.4327
4704.6924
4707.558
4708.2217
4708.8533
4707.3088
4704.2641
4702.2347
4703.6159
4705.0005
4720.7918
4691.2311
4098.8538
4124.8148
4452.3976
4590.9327
4066.1364
4052.942
3518.2736
3530.8443
3536.3014
3536.2984
3530.8276
3518.2342
3493.7391
3503.8451
3512.1931
3489.5322
3505.754
3492.8276
3448.8672
3432.1637
3498.1964
3522.1217
3535.9753
3542.1285
3533.102
3534.1094
3532.6765
3535.4456
3517.4523
3513.4029
3513.3158
3516.8115
3534.5966
3532.2243
3533.4413
3078.4718
3076.3707
3077.8642
3077.7898
3076.6073
3535.0935
4114.507
4070.2288
4119.0013
4119.5319
4048.2804
4047.6804
4047.363
4047.6228
4120.5078
4117.6888
4071.847
4110.4547
4133.9955
4121.6112
4096.1867
4026.049
3919.0988
4440.0552
4637.0919
4568.4659
4063.3323
4082.8211
4012.2054
4101.5901
4083.8196
4590.0405
4466.3002
4161.6192
4120.7699
3992.2159
4156.5016
4190.0299
4199.5851
4577.7961
4792.4053
4727.2993
4654.892
4663.0404
4720.4958
4707.5185
4702.2034
4703.8243
4706.7698
4703.7404
4705.2797
4704.7136
4702.0687
4697.4917
4692.2847
4692.3448
4694.5194
4697.5096
4699.4736
4699.8946
4698.6109
4695.748
4700.5459
4697.9638
4700.6203
4701.2254
4643.032
4683.6785
4691.6171
4691.8658
4692.5065
4693.0004
4692.638
4692.3483
4692.3212
4692.354
4696.1418
4689.4957
4685.3327
4685.5352
4690.0026
4696.2478
4686.6465
4715.4121
4671.8543
4629.2461
4729.3312
4735.3116
4531.8345
4176.6937
4155.7618
4525.8577
4137.9171
4159.4155
3994.0057
3453.5824
3522.4199
3498.3467
3432.2668
3449.0296
3948.0414
3957.0316
4094.1068
4122.3343
4456.522
4438.2343
4123.1094
3973.8332
4138.0451
3423.2538
3492.9247
3505.7422
3489.4936
3512.292
3503.9266
3493.748
3045.9139
3065.4764
3071.4364
3072.1802
3072.1781
3071.4248
3065.4539
3045.9135
3047.9522
3054.1488
3046.6609
3051.5884
3041.4063
3020.7013
3015.5115
3053.6905
3066.317
3072.5528
3076.399
3075.7006
3079.0818
3075.2112
3076.919
3071.79
3070.6204
3070.2671
3071.0123
3076.1886
3074.6678
2706.115
2709.6715
2707.3648
2706.8904
2706.8784
2707.5325
2709.8237
3078.5799
3533.4138
3532.6269
3534.8735
3517.5503
3513.3859
3513.4418
3517.3685
3535.2281
3532.1573
3534.2813
3532.9945
3542.447
3536.0673
3072.6524
3066.5216
3053.8251
3015.6125
3020.8354
3041.4977
3051.6147
3046.6569
3054.1861
3047.9671
2685.1296
2685.0005
2698.9285
2702.4265
2702.477
2702.4766
2702.4184
2698.9136
2684.996
2685.1173
2689.2482
2687.244
2688.3792
2680.8083
2669.6184
2668.2975
2691.323
2699.4785
2703.1937
2705.8163
2707.1425
2710.2148
2706.6559
2707.7132
2706.6866
2706.3209
2706.0831
2706.1118
2707.0949
2406.9765
2406.3941
2409.1746
2407.1486
2406.1504
2406.1638
2407.2762
2409.3313
2406.6528
2407.2774
2707.4382
3076.5282
3071.7923
3070.6271
3070.4027
3071.4312
3076.6635
3074.837
3079.0883
3075.6403
3076.5679
2705.8987
2703.2712
2699.616
2691.4307
2668.3841
2669.7191
2680.8799
2688.4062
2687.2495
2689.2736
2393.0315
2390.0885
2390.7529
2400.4885
2402.6259
2402.589
2402.5882
2402.6197
2400.4777
2390.747
2390.0783
2393.0132
2393.2168
2392.7957
2386.9897
2380.4899
2380.8535
2395.312
2400.8205
2403.4
2405.3137
2407.104
2409.6406
2406.8823
2407.4815
2407.9227
2407.9251
2407.7488
2407.4847
2162.3362
2161.3402
2161.0351
2163.1065
2161.4129
2160.3851
2160.4062
2161.5138
2163.2505
2161.2506
2161.5927
2162.6319
2407.8834
2706.6585
2706.3442
2706.2089
2706.4234
2707.4571
2706.3561
2710.1418
2707.0883
2407.0496
2405.3485
2403.4539
2400.9132
2395.3954
2380.9249
2380.5665
2387.0464
2392.8214
2393.2266
2151.3237
2150.3578
2148.199
2149.2043
2156.0803
2157.4184
2157.4222
2157.4211
2157.4134
2156.0719
2149.198
2148.1904
2150.3442
2151.3126
2150.271
2145.7593
2141.7874
2142.8957
2152.3919
2156.211
2158.1785
2159.667
2161.4099
2163.4891
2161.4554
2161.7514
2162.6752
2162.8972
2162.7638
1959.8932
1959.4078
1958.3532
1958.2157
1959.7296
1958.3674
1957.4787
1957.5006
1958.4489
1959.8554
1958.3937
1958.5607
1959.631
1960.0082
2162.9137
2407.949
2407.8542
2407.721
2407.2598
2406.6423
2409.5404
2163.3874
2161.3578
2159.6775
2158.2146
2156.275
2152.4563
2142.954
2141.8467
2145.8047
2150.2945
1949.4111
1950.6271
1949.5367
1947.9577
1949.0579
1953.995
1954.8857
1954.955
1954.9538
1954.8814
1953.9881
1949.0518
1947.9503
1949.5258
1950.6157
1949.39
1945.8686
1943.3512
1944.7267
1951.2416
1953.9907
1955.5944
1956.8115
1958.3455
1960.0301
1958.5665
1958.6879
1959.6743
1959.9961
1789.8574
1789.7755
1789.3032
1788.3643
1788.3146
1789.4075
1788.3521
1787.6414
1787.6614
1788.4189
1789.5149
1788.4611
1788.5338
1789.4756
1789.867
1789.8364
1959.9632
2162.8481
2162.5203
2161.5676
2161.2649
1958.4159
1959.9379
1958.2981
1956.8106
1955.6188
1954.0365
1951.2921
1944.7743
1943.3982
1945.9055
1778.174
1780.9133
1782.1148
1781.1561
1780.0224
1781.0818
1784.6819
1785.3322
1785.458
1785.4568
1785.3285
1784.676
1781.0762
1780.0159
1781.147
1782.1038
1780.8945
1778.1435
1776.5111
1777.9045
1782.5425
1784.6101
1785.9706
1786.9967
1788.2912
1789.6338
1788.6008
1788.6372
1789.517
1644.8952
1645.2124
1645.1468
1644.723
1643.9488
1643.9353
1644.7161
1643.9212
1643.3767
1643.3943
1643.9766
1644.8068
1644.0561
1644.0869
1644.8576
1645.22
1645.1993
1644.8236
1789.4245
1959.5552
1958.5391
1788.5179
1788.4816
1789.5543
1788.2497
1786.9912
1785.9876
1784.6443
1782.5829
1777.9439
1776.5491
1634.4222
1635.488
1637.6284
1638.7295
1637.9765
1637.1806
1638.1318
1640.7912
1641.3077
1641.4713
1641.4701
1641.3044
1640.7861
1638.1268
1637.1748
1637.9686
1638.719
1637.6116
1635.4624
1634.3908
1635.6804
1639.0799
1640.6955
1641.8711
1642.7493
1643.8211
1644.8794
1644.1648
1644.1708
1519.8078
1520.3825
1520.6592
1520.6064
1520.243
1519.6273
1519.6214
1520.1745
1519.5848
1519.179
1519.194
1519.6311
1520.251
1519.7214
1519.7399
1520.3493
1520.6654
1520.6516
1520.3271
1519.7323
1644.0758
1644.0703
1644.8127
1643.7856
1642.7422
1641.8834
1640.7219
1639.1129
1635.7133
1512.9759
1511.8384
1512.5417
1514.2148
1515.186
1514.6354
1514.0888
1514.9071
1516.8937
1517.3249
1517.508
1517.5069
1517.322
1516.8892
1514.9025
1514.0836
1514.6285
1515.1763
1514.1998
1512.5199
1511.8121
1512.9481
1515.4978
1516.7944
1517.8162
1518.5725
1519.4533
1520.2868
1519.8032
1411.5324
1411.5481
1411.9982
1412.2311
1412.1883
1411.8846
1411.4013
1411.3901
1411.7796
1411.3426
1411.046
1411.0588
1411.3816
1411.8441
1411.4731
1411.4935
1411.9694
1412.2362
1412.2273
1411.9552
1411.4881
1411.4723
1519.7281
1520.2314
1519.4232
1518.5653
1517.8254
1516.8153
1515.525
1407.8894
1405.9411
1404.9676
1405.4336
1406.7432
1407.5821
1407.2032
1406.8356
1407.5208
1409.021
1409.3872
1409.5756
1409.5747
1409.3847
1409.0171
1407.5167
1406.831
1407.197
1407.5731
1406.7298
1405.4148
1404.9453
1405.9174
1407.8667
1408.9239
1409.8128
1410.4659
1411.1886
1411.8516
1316.6116
1316.4074
1316.4371
1316.7907
1316.9834
1316.9484
1316.6978
1316.3179
1316.2972
1316.5711
1316.2434
1316.0302
1316.0411
1316.2766
1316.6257
1316.3666
1316.3937
1316.7662
1316.9877
1316.9821
1316.7575
1316.3894
1316.3591
1316.5737
1411.8058
1411.1631
1410.4591
1409.8198
1408.9409
1314.1568
1313.2925
1311.778
1310.9587
1311.269
1312.2967
1313.013
1312.7692
1312.5274
1313.0922
1314.2382
1314.5483
1314.7323
1314.7315
1314.546
1314.2347
1313.0885
1312.5233
1312.7637
1313.0048
1312.2847
1311.2528
1310.9396
1311.7578
1313.2733
1314.1429
1314.9156
1315.4805
1316.0749
1231.8794
1232.3235
1232.1981
1232.2405
1232.5221
1232.6804
1232.6517
1232.4459
1232.1437
1232.1141
1232.3074
1232.0563
1231.9052
1231.9145
1232.0845
1232.3538
1232.1724
1232.2065
1232.5016
1232.6842
1232.6808
1232.4964
1232.2024
1232.159
1232.2921
1231.8611
1316.0533
1315.4743
1314.921
1230.9028
1230.239
1229.5253
1228.3297
1227.6463
1227.8546
1228.6638
1229.2719
1229.1297
1228.9748
1229.4364
1230.3228
1230.5823
1230.7562
1230.7555
1230.5803
1230.3198
1229.4332
1228.9712
1229.1249
1229.2646
1228.6532
1227.8405
1227.6299
1228.3125
1229.5092
1230.2276
1230.8988
1231.3882
1156.4587
1156.8673
1157.2432
1157.1709
1157.2228
1157.4519
1157.5822
1157.5586
1157.3893
1157.1445
1157.1081
1157.246
1157.0477
1156.9424
1156.9503
1157.0718
1157.2856
1157.1574
1157.1968
1157.435
1157.5857
1157.5838
1157.4321
1157.1923
1157.1391
1157.217
1156.8515
1156.4532
1231.3824
1232.4332
1233.4942
1231.5995
1232.075
1233.0796
1229.5175
1230.3113
1231.372
1231.9087
1231.4075
1230.6516
1155.9558
1154.4765
1154.8531
1155.5478
1155.7617
1155.9223
1155.9214
1155.76
1155.5454
1154.8507
1154.4739
1154.5689
1154.6351
1154.1172
1153.4742
1153.3304
1153.8977
1154.8565
1155.4511
1156.034
1088.9458
1089.315
1089.6575
1089.9829
1089.9457
1090.0037
1090.1952
1090.3034
1090.2837
1090.1431
1089.9401
1089.8994
1089.9996
1089.8374
1089.7653
1089.7724
1089.8586
1090.0338
1089.9415
1089.9841
1090.1811
1090.3065
1090.3057
1090.1797
1089.9792
1089.9196
1089.9609
1089.6438
1089.3098
1088.9475
1156.0368
1155.4603
1154.8699
1153.9121
1153.3441
1153.4859
1154.1261
1154.6411
1154.5726
1087.7358
1087.6788
1087.9864
1088.5387
1088.7117
1088.8574
1088.8572
1088.7109
1088.5377
1087.9858
1087.6783
1087.7346
1087.7497
1087.3111
1086.799
1086.6983
1087.1692
1087.9478
1088.4398
1028.0783
1028.5175
1028.8387
1029.128
1029.4159
1029.401
1029.4624
1029.6274
1029.7192
1029.7026
1029.5837
1029.4102
1029.3676
1029.4426
1029.3044
1029.2562
1029.2625
1029.3231
1029.4725
1029.404
1029.4477
1029.6157
1029.722
1029.7218
1029.6152
1029.4423
1029.379
1029.3969
1029.1155
1028.8331
1028.5173
1028.0821
1088.4468
1087.9582
1087.1802
1086.7084
1086.8073
1087.3168
1087.7529
1027.4959
1027.513
1027.4805
1027.7331
1028.179
1028.3156
1028.4466
1028.447
1028.3168
1028.1812
1027.7372
1027.4857
1027.5181
1027.4995
1027.1274
1026.7161
1026.6416
1027.0327
1027.6727
973.11357
973.44392
973.82453
974.10404
974.3497
974.61072
974.60884
974.67092
974.81903
974.89954
974.88522
974.78153
974.62749
974.58482
974.64366
974.51982
974.48877
974.49438
974.5366
974.6703
974.61692
974.66009
974.80904
974.90192
974.90222
974.80901
974.65384
974.58967
974.59345
974.33731
974.09666
973.82055
973.44176
973.11112
1027.6786
1027.0382
1026.6454
1026.7176
1027.1263
972.63668
972.95059
972.98806
972.96894
973.17851
973.54506
973.64854
973.76622
973.76821
973.6545
973.55514
973.19379
972.98818
973.00873
972.97054
972.65416
972.31903
972.25776
972.58227
923.05443
923.49799
923.75817
924.08608
924.32811
924.53708
924.78091
924.78479
924.84528
924.9854
925.06002
925.04733
924.9524
924.80802
924.76714
924.81677
924.69786
924.67909
924.68429
924.71335
924.84107
924.79614
924.83712
924.97663
925.06198
925.06255
924.97676
924.83014
924.76733
924.76415
924.52317
924.3165
924.07436
923.7438
923.47806
923.02438
972.57643
972.24769
972.30515
922.79914
923.07272
923.33964
923.38629
923.37061
923.54768
923.8562
923.92818
924.03534
924.04097
923.94528
923.88443
923.58892
923.42257
923.44298
923.39722
923.12721
922.84744
922.78715
877.58173
877.79569
878.16381
878.35062
878.62819
878.83456
879.01087
879.24848
879.25193
879.30859
879.45089
879.52555
879.51401
879.42103
879.27546
879.23801
879.28401
879.15875
879.14881
879.15376
879.1735
879.30683
879.26493
879.30217
879.44292
879.52721
879.52791
879.44308
879.29463
879.23527
879.23086
878.99307
878.81431
878.60105
878.3115
878.10804
877.71527
877.47674
922.74657
923.86602
924.42071
924.99516
925.22282
924.93103
924.41476
879.06186
878.01609
878.17021
878.43849
878.47773
878.57911
878.59239
878.51878
878.50556
878.26695
878.13836
878.17265
878.131
877.89937
877.65562
836.19455
836.08709
836.24344
836.53854
836.63731
836.8612
837.03022
837.17488
837.42015
837.4175
837.46843
837.62584
837.70787
837.69716
837.59828
837.43809
837.40531
837.45232
837.30548
837.3016
837.3064
837.31982
837.47423
837.43084
837.46321
837.61856
837.70938
837.71011
837.61875
837.45538
837.40114
837.40018
837.14973
836.99385
836.80503
836.55045
836.4132
836.06469
835.85523
835.92938
877.53426
877.76591
877.99286
878.0387
836.3606
836.31826
836.45799
836.70162
836.70287
836.80559
836.83375
836.79129
836.84527
836.66395
836.57939
836.64683
836.62237
836.42229
798.24551
798.01143
797.8425
797.92474
798.13635
798.11773
798.27609
798.40145
798.51227
798.78277
798.76906
798.81365
799.003
799.10055
799.09019
798.97677
798.78546
798.75765
798.8092
798.62058
798.62004
798.62471
798.63462
798.83039
798.78202
798.80947
798.99629
799.10237
799.1031
798.99642
798.80162
798.75298
798.75915
798.47512
798.33763
798.16947
797.94561
797.88573
797.56807
797.37978
797.48503
797.67425
836.13327
836.32562
797.83576
797.84918
797.77093
797.90293
798.1355
798.08876
798.20243
798.25699
798.26265
798.41716
798.30609
798.28366
798.41125
798.42004
763.1881
763.03421
762.76958
762.5036
762.47842
762.57903
762.39806
762.46782
762.53819
762.61062
762.92641
762.89881
762.93905
763.17929
763.30179
763.29199
763.15504
762.914
762.88903
762.94687
762.6933
762.69268
762.69719
762.70685
762.96705
762.91201
762.93676
763.1737
763.30423
763.30495
763.1738
762.92882
762.88364
762.89846
762.55697
762.43293
762.28258
762.08761
762.12166
761.82641
761.65541
761.80816
761.99482
762.1281
762.10927
761.9764
762.10333
762.33451
762.22616
762.36136
762.45797
762.53903
762.84203
762.83079
762.90497
763.12734
730.61637
730.74761
730.61035
730.2924
729.89232
729.7061
729.64381
729.2453
729.1925
729.19346
729.2241
729.60197
729.56375
729.60733
729.91431
730.07001
730.06155
729.89409
729.58876
729.55973
729.62139
729.28479
729.27948
729.28359
729.29722
729.63963
729.58012
729.60907
729.91098
730.07268
730.07321
729.91081
729.60038
729.55136
729.57153
729.15298
729.03603
728.90121
728.73645
728.8797
728.60822
728.4573
728.67045
728.86257
728.96951
728.91065
728.7085
728.82571
729.05652
728.87402
729.03774
729.19373
729.38649
729.89524
730.03722
730.26258
700.41562
700.92621
701.13476
701.01153
700.63092
700.07178
699.64154
699.32434
698.65502
698.44188
698.36367
698.35697
698.79725
698.76861
698.83427
699.20775
699.39671
699.39073
699.195
698.82782
698.77911
698.829
698.41452
698.40025
698.4037
698.4249
698.84395
698.79524
698.84399
699.20889
699.39973
699.39975
699.20741
698.83303
698.76322
698.77151
698.27784
698.15997
698.03853
697.90803
698.1601
697.93468
697.82302
698.08925
698.27943
698.35914
698.26277
697.99492
698.08564
698.29715
698.04141
698.2293
698.45503
698.79789
699.56639
699.95474
672.87081
673.71826
674.38324
674.63872
674.52565
674.11155
673.40247
672.57816
671.82373
670.83661
670.44261
670.29555
670.26441
670.73498
670.7751
670.89994
671.30757
671.51762
671.51478
671.30647
670.91353
670.81291
670.8011
670.35581
670.33919
670.34172
670.36286
670.81092
670.82252
670.92209
671.315
671.52143
671.5202
671.31169
670.90855
670.78381
670.72791
670.20311
670.08538
669.97458
669.87512
670.20742
670.11128
670.08902
670.34634
670.48422
670.52924
670.42007
670.12809
670.15476
670.28393
669.98368
670.18028
670.4634
670.97738
672.05496
647.54056
649.20977
650.70622
651.47692
651.68588
651.57953
651.22592
650.41833
648.94455
647.33016
645.92923
645.40221
645.23598
645.17338
645.57203
645.84348
646.06837
646.42676
646.71351
646.72947
646.45406
646.10598
645.91776
645.69458
645.34168
645.37659
645.37751
645.34423
645.69789
645.92058
646.10577
646.44205
646.71862
646.73173
646.4517
646.08933
645.87319
645.60321
645.16865
645.10274
645.00021
644.88687
645.21853
645.51248
645.67485
645.74144
645.70245
645.74549
645.64576
645.42481
645.30861
645.16862
644.92417
645.13135
645.41915
646.05723
623.4299
625.44446
629.49033
632.29956
632.69192
632.63508
632.54571
632.47446
632.04094
629.25443
625.26049
623.32013
622.51526
622.40923
622.72574
622.35966
623.82624
623.98268
624.12816
625.16349
625.16715
624.159
624.0451
623.93715
622.54738
622.99013
622.73468
622.73419
622.98802
622.54507
623.93247
624.03016
624.14905
625.16872
625.16597
624.14856
624.01723
623.8809
622.4457
622.81846
622.46535
622.37106
622.5647
622.4044
624.4023
624.01512
623.58675
623.49058
624.30382
623.50851
623.4326
623.33189
622.01088
622.50686
622.31137
622.52768
605.44433
605.70999
607.69654
614.46429
619.87427
618.92233
618.62216
618.52903
618.73157
619.65543
614.25812
607.55489
605.60003
605.47688
605.34555
605.45031
605.4507
606.1214
606.33941
606.53046
606.63529
606.65032
606.58486
606.4221
606.25234
605.68269
605.77159
605.83329
605.83558
605.75966
605.66501
606.23632
606.41046
606.54779
606.64158
606.65011
606.56574
606.40393
606.20216
605.56179
605.6292
605.54997
605.60928
605.38147
606.00676
609.69036
609.63426
606.96826
606.24839
606.11687
606.06121
605.90773
605.6697
605.16293
605.2051
605.27279
589.69603
589.64602
590.2042
592.14871
591.89216
591.45912
591.82212
591.57845
591.44076
591.61962
592.18901
589.98075
589.87443
589.61188
590.26638
590.98535
590.34734
590.32957
591.92751
591.34115
591.36477
591.99915
590.41019
590.49767
591.27899
590.59397
590.34256
590.37018
590.54677
591.28124
590.45601
590.39489
591.93263
591.3427
591.3675
591.97335
590.36076
590.50005
591.08919
590.63823
589.90907
590.5834
590.1122
592.00642
589.71629
589.25635
591.81211
592.11594
591.05989
591.61235
590.1049
589.8488
590.87421
589.79577
589.99284
590.18833
592.77764
596.25349
603.0392
612.6327
619.85337
618.73589
610.98218
602.45397
596.52436
593.05806
590.45384
590.50521
592.94187
596.52791
605.1386
621.2299
644.45988
662.27254
663.3445
646.04249
621.89224
605.0263
596.41202
593.28748
590.35199
590.26169
604.95399
604.73982
608.27522
609.07532
618.70227
609.71157
608.7919
608.44163
609.25669
618.18424
608.7886
604.44809
604.66091
608.37476
608.09968
607.26736
592.61254
594.23324
598.06282
600.61854
599.90009
596.4689
594.3234
593.47522
590.45026
590.7518
604.88074
604.66031
608.20689
618.24109
608.59424
609.4705
608.98225
607.58836
609.91757
612.47534
620.37102
611.52908
611.52077
612.45487
609.49985
604.53748
604.54572
609.3542
612.13745
612.41248
620.92628
610.07556
610.83697
607.01946
592.47237
593.9601
593.51488
593.25178
590.55366
590.30648
605.63039
609.44053
610.5339
619.93911
609.91998
605.50971
609.18292
608.38691
625.88027
626.39365
627.66763
624.00442
624.48364
625.19451
625.11404
647.12426
672.45298
674.44486
671.92341
646.4532
648.70502
653.40259
647.72657
673.39952
676.06838
672.34732
647.29294
648.43335
673.58645
674.34396
649.15393
627.13044
608.71591
616.15415
612.59268
609.94276
618.82981
610.49041
629.10229
638.49528
650.1759
631.30489
635.27907
659.44215
637.70332
629.42099
668.84204
640.48575
620.64329
610.96447
608.59201
626.45134
629.82316
639.34131
631.06035
631.08866
616.07277
608.12124
606.31855
606.20193
606.05984
606.17865
607.90966
615.8676
616.15035
616.527
616.61224
616.32826
632.47648
633.06988
637.82465
635.28939
613.79932
596.69136
609.99083
642.54022
683.23716
702.98764
707.0376
706.72415
702.38053
682.36497
673.16732
645.8931
639.89268
639.97672
646.08337
674.20659
683.44325
704.1969
708.45999
708.51488
704.33367
683.87797
674.71687
646.83824
640.7845
640.81745
621.69729
603.28725
594.6826
590.75763
590.91353
593.64318
593.92827
593.93589
593.65409
590.89746
590.76826
594.64761
603.2867
621.85959
641.391
641.54723
647.70356
675.85058
685.47277
706.94031
711.55977
712.02155
707.60413
686.44365
676.75762
648.01869
641.61408
641.26802
647.30558
674.25007
709.57414
734.17908
775.16856
827.66353
878.2029
906.62131
906.24786
877.63695
826.80933
774.81978
734.72594
710.37251
675.37884
645.69464
612.90922
598.49689
601.32085
620.58982
663.13896
705.0216
684.436
723.70544
756.60787
825.83854
871.93335
911.80461
950.58474
981.92024
1004.7042
1016.4521
1016.4781
1004.8028
982.79208
951.28932
913.06691
872.98181
826.69491
912.57553
959.93075
1010.0311
1048.4167
1078.3245
1092.4638
1092.4267
1078.1819
1047.9143
1009.1993
958.68435
911.48645
949.64435
875.17666
791.73177
752.75746
758.9056
709.19911
709.17024
663.08359
620.56954
601.3115
598.49952
612.90405
645.48928
684.05451
704.78221
752.51839
758.85253
802.31973
802.40363
902.84429
1002.6502
980.22346
1046.5479
1008.4424
1068.8385
1119.5447
1156.1197
1174.7008
1174.7181
1156.1203
1119.7963
1069.658
1009.7396
950.71459
876.2471
981.61637
1048.1285
1119.6492
1181.1034
1224.6261
1246.9274
1247.3273
1224.9039
1180.9253
1118.8883
1155.2778
1076.3514
1090.5182
1014.0043
1014.1254
902.74296
1002.5458
1076.3766
1090.611
1173.5798
1173.7582
1246.5385
1224.367
1273.873
1298.9181
1298.588
1273.645
1224.4374
1156.0048
1077.9489
1003.9228
904.13643
1015.2022
1091.8416
1174.3326
1246.3205
1298.3004
1324.8571
1325.0756
1298.8384
1298.5698
1246.6081
1224.2469
1154.7816
1118.5093
1046.3082
980.14589
874.72108
791.39929
755.92819
723.27564
709.72547
674.81247
646.82691
669.77265
689.80436
733.86441
773.63754
824.70559
910.57841
949.00066
1007.8336
1067.7749
1118.4813
1180.1693
1224.2944
1273.2814
1298.6703
1324.914
1324.6297
1298.093
1246.7555
1174.1288
1091.7338
1014.9504
903.67547
1003.1539
1077.3353
1155.7594
1224.5307
1273.1065
1298.2525
1246.6517
1246.577
1173.4177
1154.7867
1076.1971
1046.1382
1007.6734
957.37457
910.33826
870.67159
824.48767
874.22041
948.59261
979.80531
1002.2184
1013.5654
1090.1082
1090.0479
1173.0685
1154.8579
1224.2581
1180.8821
1119.0951
1047.2343
980.80298
875.03666
949.46209
1008.6028
1068.5383
1118.8222
1046.4985
1075.9123
1002.0613
1013.376
902.02384
901.92463
801.37125
790.69492
755.70182
733.77693
709.63412
669.80717
658.00818
670.18147
678.44003
728.63684
739.26445
774.69141
779.50498
779.46867
774.77661
739.49313
728.88977
679.25524
647.58384
670.8631
658.89013
670.84969
710.92956
724.82176
754.65726
761.29558
761.70006
755.32352
725.55702
711.70046
670.97066
658.90016
670.76524
691.19546
735.98872
758.60339
794.73214
805.7837
805.35526
793.90083
757.92586
735.15132
691.08407
692.30037
679.17371
729.34085
740.13724
775.96898
780.91951
781.32417
776.55858
740.75906
729.95316
679.23479
670.76445
682.30265
679.11874
692.3446
742.37338
750.7678
760.14559
799.04631
798.09877
807.39689
906.26277
878.98858
830.9425
779.45072
740.39148
727.779
748.32736
738.2158
722.8484
756.07764
790.69822
751.23448
757.24966
801.36408
801.103
756.8953
750.52698
789.79534
754.9041
824.80473
870.75301
910.74517
949.01162
980.22518
874.26517
824.34927
773.00377
732.61857
708.38103
721.85045
737.45256
772.08764
776.87354
777.21752
772.64487
793.98498
794.95807
757.67747
829.96622
878.02355
896.5889
917.44633
923.17397
912.67075
958.87436
912.26212
922.93938
953.70767
1010.3292
975.0726
955.33784
982.63656
998.09236
1003.0623
1039.5207
1046.3273
1010.7552
1070.0611
1010.6548
954.84095
877.05726
974.52403
1002.4908
1009.7947
1039.3769
997.20832
981.43813
1046.2664
1077.3033
1006.2597
903.74001
803.01343
802.78589
793.53394
794.233
756.68707
747.5901
726.87457
739.3
777.93301
828.53061
876.02747
903.34552
1015.7984
1016.0702
1035.6757
1027.2
1051.2421
1073.5383
1084.2602
1090.0782
1174.7215
1156.5969
1120.22
1118.806
1067.8961
1118.8115
1120.109
1183.1014
1184.079
1228.3863
1154.3842
1073.666
1027.9158
1006.9969
1017.4006
1036.4365
1052.0784
1084.0333
1090.4442
1077.2742
1156.4516
1174.9987
1172.5699
1250.6224
1249.0489
1226.8278
1276.3425
1226.9511
1228.4056
1154.4429
1172.4697
1250.3972
1248.4884
1301.3232
1303.2305
1278.1186
1303.517
1301.2527
1328.0477
1330.1197
1333.3322
1306.6369
1253.2847
1171.9202
1153.7472
1118.9641
1066.6836
1072.8398
1126.3179
1191.8296
1126.3249
1118.8499
1186.4074
1230.9558
1235.6105
1159.7469
1178.6263
1257.805
1261.521
1176.4085
1063.8274
919.98731
894.1004
850.76451
802.69027
786.16187
833.45278
878.12434
903.57491
903.31924
797.60333
806.81054
798.23894
759.59916
750.15055
741.72522
779.52179
830.3573
878.58565
905.84489
1017.1214
1036.2545
1051.9536
1027.3889
1006.8437
1077.387
1090.5268
1084.1189
1073.3692
1039.5201
997.68731
981.7394
954.87874
974.67209
1002.8618
1009.6339
1010.1679
1046.0288
1120.0527
1156.7568
1174.9868
1172.5499
1154.5102
1228.763
1250.8521
1249.7064
1227.2857
1183.1238
1184.258
1118.4849
1067.5907
1069.5798
1119.6905
1118.534
1154.1862
1228.5418
1278.8763
1303.7908
1301.7882
1276.5385
1301.9796
1328.3273
1330.4482
1304.1327
1250.8138
1248.914
1226.6767
1156.128
1174.3364
1172.3322
1083.2684
1072.5915
1038.6108
1009.4016
953.12637
922.67045
911.62983
877.19686
830.0231
896.00008
916.99855
922.37866
911.32534
957.8233
1009.4692
953.96008
877.30452
974.02235
1002.1765
996.4694
980.41152
1044.832
1075.7953
1005.2902
903.97117
1026.6071
1050.8989
1034.7185
1015.0863
1088.8956
1089.1923
1174.2642
1249.2324
1301.8497
1328.3911
1328.0106
1301.239
1249.1314
1174.5338
1089.9558
1083.8583
1035.3469
1051.0547
1026.4509
1005.4614
1076.5585
1072.6654
1038.7778
996.69429
980.59021
1045.3561
1009.7012
953.79691
973.7303
1001.7589
1009.1382
1067.2372
1118.417
1154.0511
1172.2105
1250.3557
1228.3037
1226.9002
1156.386
1119.6885
1182.933
1183.9613
1118.3192
1119.6021
1069.3831
1009.4547
1008.3752
957.94812
910.67517
910.60975
921.71022
915.97816
952.37927
957.30367
910.62908
828.66862
876.03021
894.95669
921.84188
973.57173
1009.0016
1001.5974
1038.1067
1044.8387
980.05844
876.4281
953.28607
996.1416
1026.1987
1072.1014
1153.8531
1228.0989
1278.4056
1303.2903
1330.2015
1303.7071
1301.1843
1275.8533
1226.4764
1249.1729
1250.5252
1172.0098
1173.7655
1155.3816
1075.2618
1088.7132
1082.7835
1050.5115
1034.0514
903.15691
1004.3988
1014.3962
1014.6128
1088.887
1174.2109
1249.3599
1301.7875
1304.0258
1330.6408
1303.9883
1278.8451
1276.5188
1227.0068
1228.6919
1250.5286
1172.3038
1154.1836
1155.6967
1119.488
1182.6952
1227.0491
1228.8373
1250.9005
1172.2964
1154.3461
1155.7582
1119.5202
1118.6371
1184.0414
1118.4872
1067.3484
1069.001
1009.3236
1045.0578
1076.0506
1072.5814
1083.3179
1050.9047
1034.9561
903.97294
1015.1415
1005.1437
1026.5267
996.83741
1038.6321
1002.0297
1009.0555
973.78444
877.03854
980.34873
953.58248
910.79214
957.11124
1009.1398
1044.8666
1075.8438
1072.402
1082.9427
1050.7069
1034.4169
903.19142
1004.7593
1026.1346
996.59419
1038.4373
1001.893
1008.8958
973.5085
876.58185
980.00751
953.21484
910.528
829.08634
921.85053
952.43882
916.10916
922.17103
829.29533
876.22587
895.51642
778.86616
785.9235
832.36021
876.931
901.84908
901.77277
877.04783
832.90852
786.3879
833.08886
877.99761
893.70521
919.83662
1063.7651
1014.6276
1028.0669
903.9629
839.69937
719.48151
658.46586
633.40355
626.32415
608.88115
614.4096
611.80058
629.96747
627.01656
626.33184
626.71834
623.94238
628.88871
637.78088
648.87713
627.83297
636.4998
688.79769
689.79826
720.15725
695.78008
664.19719
641.65533
663.95762
639.80906
620.84138
602.57938
595.2285
611.914
618.98457
628.03115
650.41181
658.82412
634.77197
615.43557
657.86183
657.57803
615.28439
597.97712
598.08425
615.39938
615.3159
637.74662
632.9857
632.27813
635.11266
613.64199
596.56586
609.77658
642.06755
620.32972
602.35875
595.05593
593.23635
596.34817
604.81957
621.30317
645.10886
662.70262
662.76193
645.36026
621.6462
605.29672
596.62105
593.04429
590.56769
590.71776
593.15317
596.61485
603.27124
612.81561
620.4119
620.39453
612.7165
603.06041
596.30949
592.81722
590.36332
590.25278
604.67547
604.92389
608.75099
609.66983
609.01835
618.63077
608.20257
625.04521
626.30576
630.8614
630.85711
650.857
652.47486
653.43273
653.5234
652.69398
651.11414
674.93264
701.89063
731.68759
734.57758
732.25328
730.73844
700.33137
702.39078
699.9412
730.47423
732.65482
737.00936
731.7432
701.37015
703.84892
700.17362
730.5872
731.61541
701.3458
702.05849
732.23642
740.63258
737.88329
733.93805
744.3743
715.25213
707.18853
679.42531
687.93427
662.05083
650.55337
655.11991
680.66636
683.76381
658.19617
684.52422
674.42415
700.47273
711.13146
738.30394
711.17887
708.20612
727.49507
755.93135
766.55936
845.42044
810.31537
771.48947
748.04223
737.19377
707.47893
702.14843
674.52604
649.33595
654.04972
679.86574
688.64292
677.61343
652.87781
663.03353
675.38722
657.69821