/*--------------------------------*- C++ -*----------------------------------*\
  =========                 |
  \\      /  F ield         | OpenFOAM: The Open Source CFD Toolbox
   \\    /   O peration     | Website:  https://openfoam.org
    \\  /    A nd           | Version:  7
     \\/     M anipulation  |
\*---------------------------------------------------------------------------*/
FoamFile
{
    version     2.0;
    format      ascii;
    class       volScalarField;
    location    "50";
    object      T;
}
// * * * * * * * * * * * * * * * * * * * * * * * * * * * * * * * * * * * * * //

dimensions      [0 0 0 1 0 0 0];

internalField   nonuniform List<scalar> 
24866
(
299.99998
299.99998
299.99998
299.99999
300
300
300
300
300
300
300
300
300
300
300
300
300
300
300
300
300
300
300
300
300
300
300
300
300
300
300
300
300
300
300
300
300
300
300
300
300
300
300
300
300
300
300
300
300
300
300
300
300
300
300
300
300
300
300
300
300
300
300
300
300
300
300
300
300
300
300
300
300
300
300
300
300
300
300
300
300
300
300
300
300
300
300
300
300
300
300
300
300
300
300
300
300
300
300
300
300
300
300
300
300
300
300
300
300
300
300
300
300
300
300
300
300
300
300.00001
300.00001
300.00001
300.00001
300.00001
300.00001
300
300
300
300
300
300
300.00001
300.00001
300.00001
300.00001
300.00001
300.00001
300.00001
300
300
300
300
300
300
300
300
300
299.99999
299.99999
299.99999
299.99999
299.99999
299.99999
299.99999
300
300
299.99999
299.99999
299.99999
299.99999
300
300
299.99999
299.99999
299.99999
299.99999
299.99999
299.99999
299.99999
299.99999
299.99999
299.99999
299.99999
299.99999
299.99999
299.99999
299.99999
299.99999
299.99999
299.99999
299.99999
300
300
299.99999
299.99999
299.99999
300
300
300
300
300
300
300
300
300
300
300
300.00001
300.00001
300.00001
300.00001
300.00001
300.00001
300.00001
300
300
300
300
300
300
299.99999
299.99999
300
299.99999
299.99999
299.99998
299.99998
299.99998
299.99998
299.99998
299.99998
299.99998
299.99998
299.99998
299.99998
299.99998
299.99998
299.99998
299.99998
299.99998
299.99998
299.99998
299.99998
299.99998
299.99998
299.99998
299.99998
299.99998
299.99998
299.99998
299.99998
299.99998
299.99998
299.99998
299.99997
299.99997
299.99997
299.99997
299.99997
299.99998
299.99999
299.99999
299.99999
299.99999
299.99999
299.99999
299.99999
299.99999
299.99999
299.99999
299.99999
299.99999
299.99999
299.99999
299.99999
299.99999
299.99999
300
300
300
299.99999
299.99999
299.99999
299.99999
299.99999
300
299.99999
299.99999
299.99999
299.99999
299.99999
299.99999
299.99999
299.99999
300
300
300
300
300
300
300
300.00001
300.00001
300.00001
300.00001
300.00001
300.00001
300.00001
300
300
300
300.00001
300.00001
300.00001
300.00001
300
300.00001
300
300
300
300
300
300
300
300
300
300
300
300
300
300
300
300
300
300
300
300
300
300
300
300
300
300
299.99999
299.99999
300
299.99999
299.99999
299.99999
299.99998
299.99998
299.99998
299.99998
299.99998
300
299.99998
299.99999
299.99999
299.99998
299.99999
299.99999
299.99999
299.99999
299.99999
299.99998
299.99998
299.99998
299.99998
299.99998
299.99998
299.99997
299.99997
299.99997
299.99997
299.99997
299.99997
299.99997
299.99997
299.99997
299.99997
299.99997
299.99997
299.99997
299.99997
299.99997
299.99997
299.99997
299.99997
299.99997
299.99997
299.99997
299.99997
299.99997
299.99997
299.99997
299.99997
299.99997
299.99997
299.99997
299.99995
299.99995
299.99995
299.99995
299.99995
299.99995
299.99995
299.99997
299.99998
299.99998
299.99998
299.99998
299.99998
299.99998
299.99998
299.99998
299.99998
299.99998
299.99998
299.99998
299.99998
299.99997
299.99997
299.99997
299.99997
299.99997
299.99997
299.99997
299.99997
299.99997
299.99997
299.99995
299.99995
299.99995
299.99995
299.99995
299.99995
299.99995
299.99995
299.99995
299.99995
299.99995
299.99995
299.99995
299.99995
299.99995
299.99995
299.99995
299.99995
299.99995
299.99995
299.99995
299.99995
299.99995
299.99995
299.99995
299.99995
299.99995
299.99995
299.99995
299.99993
299.99993
299.99993
299.99993
299.99993
299.99993
299.99993
299.99993
299.99993
299.99993
299.99995
299.99997
299.99997
299.99997
299.99997
299.99997
299.99997
299.99997
299.99997
299.99997
299.99997
299.99995
299.99995
299.99995
299.99995
299.99995
299.99995
299.99995
299.99996
299.99995
299.99995
299.99993
299.99993
299.99993
299.99993
299.99993
299.99993
299.99993
299.99993
299.99993
299.99993
299.99993
299.99993
299.99993
299.99993
299.99993
299.99993
299.99993
299.99993
299.99993
299.99993
299.99993
299.99993
299.99993
299.99993
299.99993
299.99993
299.99993
299.99993
299.99993
299.9999
299.9999
299.9999
299.9999
299.9999
299.99989
299.99989
299.9999
299.9999
299.9999
299.9999
299.9999
299.99993
299.99995
299.99995
299.99995
299.99995
299.99995
299.99995
299.99995
299.99995
299.99993
299.99993
299.99993
299.99993
299.99993
299.99993
299.99993
299.99993
299.99993
299.99993
299.99991
299.9999
299.9999
299.9999
299.9999
299.9999
299.99989
299.99989
299.9999
299.9999
299.9999
299.9999
299.9999
299.99991
299.99991
299.9999
299.9999
299.9999
299.9999
299.9999
299.99989
299.99989
299.9999
299.9999
299.9999
299.9999
299.9999
299.9999
299.9999
299.99987
299.99986
299.99986
299.99985
299.99985
299.99985
299.99985
299.99985
299.99985
299.99985
299.99985
299.99986
299.99986
299.99987
299.9999
299.99993
299.99993
299.99993
299.99993
299.99993
299.99993
299.9999
299.9999
299.99989
299.99989
299.9999
299.9999
299.9999
299.9999
299.9999
299.99991
299.99987
299.99987
299.99986
299.99986
299.99986
299.99985
299.99985
299.99985
299.99985
299.99985
299.99985
299.99986
299.99986
299.99986
299.99987
299.99987
299.99986
299.99986
299.99985
299.99985
299.99985
299.99985
299.99985
299.99985
299.99985
299.99985
299.99986
299.99986
299.99987
299.99981
299.99981
299.99981
299.99981
299.9998
299.9998
299.9998
299.99979
299.99979
299.9998
299.9998
299.9998
299.99981
299.99981
299.99981
299.99981
299.99987
299.9999
299.9999
299.9999
299.9999
299.99985
299.99985
299.99985
299.99985
299.99985
299.99985
299.99985
299.99986
299.99986
299.99986
299.99981
299.99981
299.99981
299.99981
299.99981
299.9998
299.9998
299.9998
299.99979
299.99979
299.9998
299.9998
299.9998
299.99981
299.99981
299.99981
299.99981
299.99981
299.99981
299.9998
299.9998
299.9998
299.99979
299.99979
299.9998
299.9998
299.9998
299.99981
299.99981
299.99974
299.99974
299.99974
299.99974
299.99974
299.99973
299.99972
299.99973
299.99972
299.99972
299.99973
299.99972
299.99973
299.99974
299.99974
299.99974
299.99974
299.99974
299.99981
299.99986
299.99986
299.99981
299.9998
299.9998
299.9998
299.99979
299.99979
299.9998
299.9998
299.9998
299.99981
299.99974
299.99974
299.99974
299.99974
299.99974
299.99974
299.99973
299.99972
299.99973
299.99972
299.99972
299.99973
299.99972
299.99973
299.99974
299.99974
299.99974
299.99974
299.99974
299.99974
299.99973
299.99972
299.99973
299.99972
299.99972
299.99973
299.99972
299.99973
299.99974
299.99965
299.99965
299.99966
299.99966
299.99965
299.99965
299.99964
299.99964
299.99965
299.99964
299.99964
299.99965
299.99964
299.99964
299.99965
299.99965
299.99966
299.99966
299.99965
299.99965
299.99974
299.99973
299.99973
299.99973
299.99972
299.99972
299.99973
299.99972
299.99973
299.99964
299.99965
299.99965
299.99966
299.99966
299.99965
299.99965
299.99964
299.99964
299.99965
299.99964
299.99964
299.99965
299.99964
299.99964
299.99965
299.99965
299.99966
299.99966
299.99965
299.99965
299.99964
299.99964
299.99965
299.99964
299.99964
299.99965
299.99964
299.99964
299.99955
299.99956
299.99956
299.99956
299.99956
299.99956
299.99956
299.99955
299.99955
299.99956
299.99956
299.99956
299.99956
299.99955
299.99955
299.99956
299.99956
299.99955
299.99955
299.99956
299.99956
299.99955
299.99964
299.99964
299.99965
299.99964
299.99964
299.99965
299.99964
299.99955
299.99955
299.99956
299.99955
299.99955
299.99955
299.99956
299.99956
299.99955
299.99955
299.99956
299.99955
299.99955
299.99956
299.99955
299.99955
299.99956
299.99955
299.99955
299.99955
299.99955
299.99956
299.99955
299.99955
299.99956
299.99956
299.99956
299.99956
299.99955
299.99948
299.99948
299.99949
299.99948
299.99947
299.99947
299.99948
299.99949
299.99948
299.99948
299.9995
299.99949
299.99949
299.99949
299.99948
299.99948
299.99949
299.99948
299.99947
299.99947
299.99948
299.99949
299.99948
299.99948
299.99955
299.99956
299.99956
299.99956
299.99956
299.99949
299.99948
299.99948
299.99948
299.99947
299.99947
299.99947
299.99947
299.99948
299.99948
299.99948
299.99949
299.99949
299.99949
299.99949
299.99948
299.99948
299.99948
299.99947
299.99947
299.99947
299.99947
299.99948
299.99948
299.99948
299.99949
299.99949
299.99949
299.99949
299.99947
299.99946
299.99946
299.99946
299.99945
299.99944
299.99944
299.99945
299.99946
299.99946
299.99946
299.99947
299.99947
299.99947
299.99947
299.99946
299.99946
299.99945
299.99944
299.99944
299.99944
299.99944
299.99945
299.99946
299.99946
299.99947
299.99949
299.99949
299.99949
299.99947
299.99947
299.99946
299.99946
299.99945
299.99944
299.99943
299.99943
299.99944
299.99945
299.99946
299.99946
299.99947
299.99947
299.99947
299.99947
299.99946
299.99945
299.99945
299.99944
299.99943
299.99943
299.99944
299.99945
299.99945
299.99946
299.99947
299.99947
299.99947
299.99951
299.9995
299.9995
299.99949
299.99948
299.99947
299.99946
299.99947
299.99947
299.99948
299.99949
299.9995
299.9995
299.99951
299.99951
299.9995
299.9995
299.99949
299.99948
299.99947
299.99946
299.99946
299.99947
299.99948
299.99949
299.9995
299.9995
299.99951
299.99947
299.99941
299.99931
299.99941
299.99933
299.99923
299.99938
299.99932
299.99928
299.99928
299.99932
299.99938
299.9994
299.99948
299.99949
299.99949
299.9995
299.9995
299.9995
299.9995
299.99949
299.99949
299.99947
299.99947
299.99946
299.99946
299.99947
299.99947
299.99949
299.99949
299.9995
299.99951
299.9996
299.9996
299.99959
299.99959
299.99959
299.99957
299.99956
299.99955
299.99955
299.99956
299.99957
299.99959
299.99959
299.99959
299.9996
299.9996
299.99959
299.99959
299.99959
299.99957
299.99956
299.99955
299.99955
299.99956
299.99957
299.99959
299.99959
299.99959
299.9996
299.9996
299.99951
299.9995
299.99949
299.99949
299.99948
299.99947
299.99946
299.99946
299.99947
299.99956
299.99956
299.99958
299.99959
299.99958
299.9996
299.9996
299.99958
299.99959
299.99958
299.99956
299.99955
299.99955
299.99954
299.99955
299.99956
299.99958
299.99959
299.99959
299.99973
299.99974
299.99974
299.99973
299.99974
299.99973
299.99971
299.99971
299.9997
299.9997
299.99971
299.99971
299.99973
299.99974
299.99973
299.99975
299.99975
299.99973
299.99974
299.99973
299.99971
299.99971
299.9997
299.9997
299.99971
299.99971
299.99973
299.99974
299.99973
299.99974
299.99974
299.99973
299.99959
299.99959
299.99958
299.99956
299.99956
299.99955
299.99955
299.99969
299.9997
299.9997
299.99973
299.99974
299.99973
299.99974
299.99974
299.99973
299.99973
299.99973
299.9997
299.9997
299.99969
299.99969
299.9997
299.9997
299.99973
299.99974
299.99993
299.99991
299.99993
299.99993
299.99992
299.99993
299.99993
299.9999
299.9999
299.9999
299.9999
299.9999
299.9999
299.99993
299.99994
299.99992
299.99993
299.99993
299.99992
299.99994
299.99993
299.9999
299.9999
299.9999
299.9999
299.9999
299.9999
299.99993
299.99994
299.99992
299.99993
299.99993
299.99991
299.99993
299.99974
299.99973
299.9997
299.9997
299.99969
299.99989
299.99989
299.9999
299.99989
299.99992
299.99993
299.99991
299.99992
299.99992
299.99991
299.99993
299.99992
299.99989
299.99989
299.99989
299.99989
299.99989
299.99989
299.99992
300.00011
300.00013
300.0001
300.00011
300.00011
300.00011
300.00013
300.00012
300.00009
300.00011
300.00011
300.00011
300.00011
300.0001
300.00012
300.00014
300.00011
300.00012
300.00012
300.00011
300.00014
300.00012
300.0001
300.00011
300.00011
300.00011
300.00011
300.0001
300.00012
300.00013
300.00011
300.00011
300.00011
300.0001
300.00013
300.00012
299.99992
299.99989
299.9999
300.0001
300.0001
300.0001
300.0001
300.00009
300.00012
300.00013
300.0001
300.00011
300.00011
300.0001
300.00013
300.00011
300.00008
300.00009
300.0001
300.0001
300.00009
300.00008
300.00026
300.00029
300.0003
300.00027
300.00027
300.00027
300.00027
300.00031
300.0003
300.00027
300.00029
300.0003
300.0003
300.00029
300.00027
300.0003
300.00031
300.00028
300.00028
300.00028
300.00027
300.00031
300.0003
300.00027
300.00029
300.0003
300.0003
300.00029
300.00027
300.0003
300.00031
300.00027
300.00027
300.00027
300.00027
300.0003
300.00029
300.00026
300.00009
300.00011
300.00009
300.00008
300.00008
300.00009
300.00011
300.00032
300.00026
300.00029
300.0003
300.00027
300.00027
300.00027
300.00026
300.0003
300.00029
300.00026
300.00028
300.00029
300.00029
300.00028
300.0004
300.00038
300.0004
300.00041
300.00037
300.00037
300.00037
300.00038
300.00042
300.00041
300.00039
300.00042
300.00044
300.00044
300.00042
300.00039
300.00041
300.00042
300.00038
300.00037
300.00037
300.00038
300.00042
300.00041
300.0004
300.00042
300.00044
300.00044
300.00042
300.0004
300.00042
300.00042
300.00038
300.00037
300.00037
300.00038
300.00041
300.0004
300.00038
300.00041
300.00028
300.00029
300.00029
300.00028
300.00041
300.00039
300.0004
300.00041
300.00037
300.00036
300.00036
300.00037
300.00041
300.0004
300.00038
300.0004
300.00042
300.00042
300.00048
300.00045
300.00042
300.00044
300.00045
300.0004
300.00039
300.00039
300.00041
300.00046
300.00045
300.00044
300.00047
300.0005
300.0005
300.00047
300.00044
300.00045
300.00046
300.00041
300.0004
300.0004
300.00041
300.00046
300.00045
300.00044
300.00047
300.0005
300.0005
300.00048
300.00044
300.00045
300.00046
300.00041
300.00039
300.00039
300.00041
300.00045
300.00044
300.00043
300.00046
300.00049
300.00043
300.00043
300.00049
300.00046
300.00043
300.00044
300.00045
300.0004
300.00038
300.00038
300.0004
300.00045
300.00043
300.00042
300.00045
300.00048
300.00047
300.00047
300.00043
300.0004
300.0004
300.00041
300.00035
300.00032
300.00033
300.00036
300.00042
300.00041
300.00042
300.00045
300.00049
300.00049
300.00045
300.00042
300.00041
300.00042
300.00036
300.00033
300.00033
300.00036
300.00042
300.00041
300.00041
300.00045
300.00049
300.00049
300.00046
300.00042
300.00042
300.00042
300.00036
300.00033
300.00033
300.00036
300.00041
300.0004
300.0004
300.00044
300.00048
300.00048
300.00044
300.00041
300.0004
300.00041
300.00035
300.00032
300.00032
300.00035
300.00041
300.00039
300.0004
300.00043
300.00032
300.00037
300.00037
300.00033
300.00027
300.00026
300.00027
300.00021
300.00016
300.00017
300.00022
300.00029
300.00028
300.0003
300.00035
300.0004
300.0004
300.00035
300.0003
300.00028
300.00029
300.00022
300.00017
300.00017
300.00022
300.00029
300.00028
300.0003
300.00035
300.0004
300.0004
300.00036
300.0003
300.00028
300.00029
300.00022
300.00017
300.00017
300.00021
300.00028
300.00027
300.00028
300.00034
300.00038
300.00039
300.00034
300.00029
300.00027
300.00028
300.00021
300.00016
300.00016
300.0002
300.00027
300.00026
300.00027
300.00007
300.00013
300.00018
300.00018
300.00013
300.00007
300.00004
300.00006
299.99998
299.99993
299.99993
299.99999
300.00008
300.00007
300.0001
300.00017
300.00022
300.00022
300.00016
300.00009
300.00006
300.00007
299.99999
299.99993
299.99993
299.99999
300.00007
300.00006
300.00009
300.00016
300.00022
300.00022
300.00017
300.0001
300.00007
300.00008
299.99999
299.99993
299.99993
299.99998
300.00006
300.00005
300.00008
300.00015
300.0002
300.00021
300.00015
300.00008
300.00005
300.00007
299.99998
299.99992
299.99992
299.99997
300.00005
300.00004
299.99976
299.9998
299.99988
299.99994
299.99994
299.99988
299.9998
299.99976
299.99977
299.99968
299.99962
299.99963
299.99969
299.9998
299.99979
299.99983
299.99991
299.99997
299.99997
299.99991
299.99983
299.99978
299.99979
299.99969
299.99962
299.99962
299.99969
299.99979
299.99978
299.99983
299.9999
299.99997
299.99997
299.99991
299.99984
299.99979
299.9998
299.99969
299.99963
299.99962
299.99968
299.99978
299.99976
299.99981
299.99989
299.99995
299.99996
299.9999
299.99982
299.99978
299.99978
299.99968
299.99962
299.99961
299.99967
299.99977
299.99942
299.99941
299.99946
299.99955
299.99962
299.99962
299.99955
299.99946
299.99941
299.99943
299.99933
299.99927
299.99927
299.99934
299.99946
299.99945
299.9995
299.99959
299.99966
299.99966
299.99959
299.99949
299.99944
299.99945
299.99933
299.99926
299.99926
299.99933
299.99945
299.99944
299.99949
299.99958
299.99966
299.99966
299.99959
299.9995
299.99945
299.99946
299.99934
299.99927
299.99927
299.99933
299.99944
299.99943
299.99947
299.99957
299.99964
299.99965
299.99958
299.99948
299.99944
299.99945
299.99933
299.99926
299.99926
299.99932
299.99894
299.99903
299.99903
299.99908
299.99918
299.99925
299.99925
299.99918
299.99908
299.99903
299.99903
299.99894
299.9989
299.9989
299.99895
299.99906
299.99907
299.99911
299.99919
299.99927
299.99927
299.99919
299.9991
299.99905
299.99904
299.99893
299.99888
299.99888
299.99893
299.99904
299.99905
299.99909
299.99918
299.99927
299.99927
299.99919
299.9991
299.99906
299.99905
299.99894
299.99889
299.99889
299.99893
299.99902
299.99899
299.99904
299.99915
299.99924
299.99926
299.99918
299.99909
299.99905
299.99904
299.99894
299.99889
299.99889
299.99823
299.99835
299.99859
299.99849
299.99858
299.99869
299.99877
299.99877
299.99869
299.99858
299.9985
299.99859
299.99836
299.99823
299.99824
299.99836
299.99865
299.99849
299.99852
299.99879
299.99889
299.99889
299.99878
299.9985
299.99847
299.99862
299.99833
299.99821
299.99821
299.99834
299.99862
299.99846
299.9985
299.99878
299.99889
299.99889
299.99878
299.99851
299.99848
299.99864
299.99835
299.99823
299.99822
299.99834
299.99861
299.99854
299.99846
299.99856
299.99883
299.99887
299.99877
299.9985
299.99848
299.99863
299.99835
299.99824
299.99752
299.99751
299.99766
299.99798
299.99784
299.99784
299.99793
299.99793
299.99784
299.99784
299.99798
299.99766
299.99752
299.99752
299.99766
299.998
299.9978
299.99782
299.99816
299.99829
299.99829
299.99815
299.9978
299.99778
299.99797
299.99762
299.99748
299.99748
299.99762
299.99797
299.99778
299.9978
299.99814
299.99829
299.99829
299.99814
299.9978
299.99779
299.99799
299.99764
299.9975
299.99749
299.99763
299.99792
299.99739
299.99721
299.99777
299.99818
299.99825
299.99813
299.9978
299.99779
299.99799
299.99766
299.9975
299.99746
299.99793
299.99848
299.99869
299.99865
299.99852
299.99852
299.99861
299.99865
299.99844
299.9979
299.99744
299.99749
299.9981
299.99848
299.99867
299.99806
299.99679
299.99565
299.99556
299.99667
299.99801
299.99866
299.99846
299.9981
299.9975
299.99745
299.99756
299.99762
299.99797
299.99806
299.99847
299.998
299.9979
299.99869
299.998
299.99846
299.99804
299.99761
299.99758
299.99791
299.99796
299.99881
299.99811
299.99826
299.99854
299.99866
299.99858
299.99819
299.99814
299.99805
299.99747
299.99742
299.99754
299.99758
299.99794
299.99846
299.99788
299.99797
299.99801
299.99876
299.99893
299.99795
299.99854
299.99804
299.99779
299.99749
299.99727
299.99745
299.9975
299.99754
299.99752
299.99796
299.99874
299.99806
299.99824
299.99765
299.99755
299.99821
299.99834
299.99816
299.99765
299.99766
299.99775
299.9981
299.99819
299.99864
299.99818
299.99775
299.9981
299.99885
299.99937
299.99921
299.99967
299.99932
299.99905
299.99934
299.99904
299.99944
299.99979
300.00015
299.99979
299.99945
299.99983
300.00061
299.99977
300.0001
300.0005
299.99995
299.99962
299.99982
300.00015
300.00028
299.99997
299.99952
299.99906
299.99962
299.99941
299.99907
299.99983
299.99936
300
300.00068
300.001
300.00007
300.00033
300.00107
299.99981
299.99989
299.99719
299.99929
299.99988
299.99934
299.9988
299.99931
300
300.00066
299.99967
299.99919
299.99863
299.99823
299.99829
299.9984
299.9984
299.99829
299.99824
299.99863
299.99873
299.99884
299.99884
299.99873
299.99936
299.99948
300.00028
300.00007
299.99924
299.99841
299.99865
299.99688
299.99055
299.98911
299.98832
299.98835
299.98921
299.9907
299.99254
299.99415
299.9957
299.9957
299.99416
299.99256
299.99069
299.98918
299.98836
299.98838
299.98922
299.99068
299.99253
299.99413
299.99567
299.99566
299.9981
299.9987
299.99824
299.99767
299.99764
299.99816
299.99838
299.99838
299.99817
299.99764
299.99767
299.99825
299.99869
299.99806
299.99556
299.99555
299.99399
299.99234
299.99039
299.98871
299.98777
299.98775
299.98861
299.99018
299.99215
299.99388
299.9955
299.9955
299.99395
299.99236
299.98761
299.98112
299.9752
299.97028
299.96761
299.96669
299.96672
299.96777
299.97051
299.9755
299.98138
299.98777
299.99244
299.9968
299.99866
299.99854
299.99869
299.99852
299.99573
299.98914
299.99062
299.98472
299.97734
299.97061
299.9684
299.96751
299.96713
299.96728
299.96736
299.96751
299.96749
299.9673
299.96721
299.96701
299.96736
299.96819
299.9703
299.96737
299.96726
299.96788
299.96877
299.9695
299.96991
299.96992
299.96952
299.96881
299.96796
299.96736
299.96753
299.96716
299.96793
299.97442
299.98256
299.98128
299.98829
299.98827
299.99573
299.99853
299.9987
299.99854
299.99864
299.99682
299.99068
299.98915
299.98257
299.98126
299.97299
299.97298
299.96695
299.96741
299.96731
299.96881
299.96795
299.9695
299.97113
299.97238
299.97305
299.97305
299.97237
299.97111
299.96947
299.96789
299.96703
299.96766
299.96722
299.96878
299.97111
299.97339
299.9751
299.976
299.97601
299.97512
299.97341
299.97113
299.9724
299.96953
299.96995
299.96758
299.96759
299.96696
299.96745
299.96957
299.96996
299.97308
299.97308
299.97601
299.97512
299.97714
299.97819
299.97818
299.97713
299.9751
299.97239
299.96952
299.96733
299.96673
299.96751
299.96994
299.97307
299.976
299.97817
299.9793
299.9793
299.97819
299.97819
299.97603
299.97515
299.97243
299.9712
299.96888
299.96738
299.968
299.97446
299.97748
299.98479
299.98792
299.99254
299.99415
299.99057
299.98625
299.98159
299.97571
299.97075
299.96765
299.96724
299.96804
299.96958
299.97121
299.97346
299.97517
299.97717
299.97822
299.97932
299.9793
299.97818
299.97604
299.97309
299.96996
299.96752
299.96676
299.96737
299.96956
299.97245
299.97517
299.97717
299.97822
299.97607
299.97607
299.97313
299.97247
299.96962
299.96891
299.96806
299.96746
299.96766
299.96854
299.97077
299.96805
299.96727
299.96742
299.9675
299.96764
299.97001
299.97001
299.97313
299.97247
299.97519
299.97349
299.9712
299.96886
299.9673
299.96779
299.96714
299.968
299.96958
299.97122
299.9689
299.9696
299.96747
299.96763
299.967
299.96703
299.97309
299.97454
299.97746
299.98155
299.98787
299.99053
299.99319
299.99491
299.99201
299.98892
299.98557
299.98294
299.98152
299.98157
299.98298
299.98553
299.98883
299.99187
299.99399
299.99031
299.993
299.99034
299.98763
299.98443
299.98211
299.98071
299.98067
299.98196
299.98421
299.9874
299.99019
299.99293
299.99023
299.98578
299.981
299.97686
299.97386
299.97243
299.97251
299.97404
299.97709
299.98129
299.98599
299.98802
299.99185
299.98871
299.98531
299.98263
299.98114
299.98109
299.98247
299.98508
299.98848
299.9917
299.9947
299.99556
299.99175
299.98781
299.98226
299.98676
299.97826
299.9747
299.98059
299.97326
299.96502
299.9663
299.96932
299.97531
299.9824
299.98871
299.98702
299.98539
299.98451
299.97704
299.97412
299.98237
299.98113
299.9727
299.97274
299.98117
299.9825
299.97426
299.97725
299.97053
299.9684
299.96756
299.9672
299.96738
299.96796
299.97064
299.97556
299.98141
299.98781
299.9847
299.98555
299.98298
299.98156
299.98152
299.98288
299.98094
299.97501
299.97846
299.96935
299.96706
299.96554
299.96214
299.96421
299.96597
299.96564
299.96598
299.96421
299.96362
299.96393
299.9634
299.96548
299.96555
299.96333
299.96006
299.96457
299.96702
299.96621
299.96784
299.96621
299.9655
299.96636
299.9634
299.96004
299.96391
299.96457
299.9633
299.96555
299.96704
299.96775
299.96557
299.96511
299.9736
299.97364
299.98102
299.97513
299.97866
299.98717
299.98887
299.98264
299.97564
299.96957
299.9665
299.96516
299.96573
299.96571
299.96335
299.96323
299.96001
299.9652
299.96555
299.96815
299.97155
299.97086
299.96956
299.96733
299.96547
299.96732
299.96955
299.97199
299.96997
299.9718
299.96855
299.96519
299.96323
299.96554
299.96569
299.96335
299.96005
299.96552
299.96812
299.96772
299.97084
299.97153
299.96926
299.97275
299.97469
299.97377
299.97589
299.97378
299.97181
299.96858
299.96929
299.97276
299.97469
299.97699
299.97515
299.97402
299.97515
299.97699
299.97817
299.97638
299.9743
299.97304
299.97057
299.96703
299.9663
299.96516
299.96322
299.96096
299.96291
299.96544
299.96292
299.96517
299.96776
299.9696
299.96724
299.96396
299.9647
299.96822
299.96558
299.96201
299.95562
299.9606
299.96282
299.96724
299.97532
299.9756
299.9688
299.96502
299.96339
299.96352
299.98069
299.97338
299.9749
299.97851
299.98703
299.98255
299.9756
299.96957
299.96648
299.96509
299.96572
299.96338
299.9601
299.96329
299.96561
299.96776
299.96814
299.96554
299.96523
299.96467
299.96345
299.96565
299.96563
299.96357
299.96022
299.96405
299.96631
299.96709
299.96959
299.97086
299.97154
299.96927
299.96859
299.97183
299.97277
299.97472
299.9738
299.97202
299.97002
299.96738
299.96557
299.96791
299.9696
299.96741
299.96864
299.97185
299.97406
299.97518
299.97701
299.97592
299.97702
299.97818
299.9764
299.97521
299.97281
299.97473
299.9738
299.9709
299.97159
299.96935
299.96565
299.96531
299.96471
299.96408
299.96381
299.96444
299.96616
299.9673
299.96965
299.96578
299.9624
299.96444
299.96618
299.96578
299.96631
299.96567
299.96663
299.9636
299.96029
299.96349
299.96569
299.9671
299.9678
299.9657
299.96537
299.9634
299.96026
299.96351
299.96583
299.9682
299.96822
299.9716
299.97475
299.97704
299.9782
299.97819
299.97701
299.97473
299.97158
299.96817
299.96557
299.96338
299.96008
299.96328
299.96562
299.96779
299.96524
299.96468
299.96342
299.96564
299.96712
299.96634
299.96562
299.96353
299.96017
299.96404
299.96561
299.96743
299.96862
299.9693
299.97278
299.97187
299.97385
299.97092
299.96965
299.97209
299.97008
299.96747
299.96968
299.96797
299.96637
299.96803
299.9674
299.96752
299.96615
299.9644
299.96236
299.96378
299.96579
299.96618
299.96966
299.96727
299.96573
299.96442
299.96361
299.9641
299.96028
299.96475
299.96718
299.96574
299.96664
299.96568
299.96352
299.96345
299.96535
299.96869
299.97189
299.97409
299.97518
299.97641
299.97522
299.97704
299.97595
299.97386
299.97479
299.97286
299.96941
299.97164
299.97095
299.96785
299.96826
299.9657
299.96029
299.96355
299.96541
299.96574
299.96587
299.96589
299.96828
299.97166
299.9748
299.97706
299.97524
299.97643
299.97522
299.97412
299.97597
299.97386
299.97192
299.97282
299.96937
299.9687
299.97094
299.96969
299.9721
299.97388
299.97195
299.97288
299.96943
299.96875
299.97098
299.96971
299.96754
299.97012
299.96751
299.96571
299.96802
299.96642
299.9672
299.96786
299.96536
299.96568
299.96029
299.96353
299.96538
299.96584
299.96574
299.96345
299.96359
299.9648
299.96038
299.96419
299.9637
299.96669
299.96577
299.96576
299.96629
299.9659
299.96644
299.96723
299.9679
299.96541
299.96572
299.96034
299.96358
299.96545
299.96578
299.9635
299.96363
299.96483
299.96042
299.9642
299.96373
299.96675
299.96582
299.96579
299.96631
299.96979
299.96458
299.96394
299.96254
299.96455
299.96978
299.96742
299.9659
299.97577
299.97603
299.96927
299.96545
299.9638
299.9638
299.96539
299.96915
299.97588
299.96908
299.96523
299.96305
299.96069
299.95567
299.95642
299.95226
299.96229
299.98154
299.99771
300.00107
300.00025
299.99946
299.99894
299.9995
299.99909
299.99995
299.99925
299.99911
299.9996
299.99929
299.99998
300.00063
300.00097
299.99987
299.9998
299.99565
299.99555
299.99766
299.99927
300.00096
300.0009
300.00097
299.9993
299.99803
299.99867
299.9983
299.99906
299.99979
299.99985
300.00098
300.00107
299.99979
299.99858
299.99594
299.99598
299.9986
299.99849
299.99849
299.99936
299.99937
300.00028
299.99948
299.99936
300.00007
299.99924
299.99841
299.99866
299.99693
299.99811
299.99869
299.99831
299.99809
299.99845
299.9987
299.99811
299.99686
299.99578
299.9958
299.99685
299.99812
299.99869
299.99846
299.9981
299.99747
299.99742
299.9979
299.99847
299.9987
299.99868
299.99857
299.99856
299.99867
299.99872
299.99849
299.99793
299.99744
299.99749
299.99762
299.99756
299.9979
299.998
299.99806
299.99847
299.99798
299.99905
299.99932
299.99968
299.99919
299.9996
299.99979
299.99993
299.99993
299.99979
299.9996
299.99994
300.00019
300.00038
300.00078
300.0005
300.00027
300.00007
300.00038
300.00007
300.00028
300.00052
300.0011
300.0005
300.00035
300.0007
300.0002
300.00039
300.00053
300.00038
300.00049
300.00063
300.00158
300.00125
300.00078
300.00204
300.00218
300.00112
300.00097
300.00201
300.00149
300.00018
300.0007
300.00109
300.00145
300.001
300.00253
300.00219
300.00307
300.00375
300.00442
300.00164
300.00127
300.00347
300.00336
300.00442
300.01088
300.00862
300.00529
300.00255
300.0011
300.00112
300.00034
300.0001
299.99976
300.00061
300.00097
300.00201
300.0005
300.00016
300.00149
300.00219
300.00069
300.00109
300.00013
300.00027
300.00048
300.00036
300.00052
300.00062
300.00159
300.00125
300.00126
300.00069
300.00218
300.00205
300.00337
300.00349
300.00308
300.00377
300.00146
300.00098
300.00254
300.00083
300.00212
300.00275
300.00187
300.00252
300.00427
300.00274
300.0007
299.99748
299.98861
299.98147
299.96205
299.96743
299.97644
299.98877
299.99934
299.99733
299.99582
299.99778
299.9816
299.9621
299.96743
299.96724
299.96883
299.9651
299.96284
299.95619
299.95963
299.9572
299.95436
299.96539
299.97581
299.96532
299.95906
299.94722
299.95198
299.95063
299.95941
299.96065
299.9635
299.96358
299.96074
299.95563
299.95555
299.96133
299.96038
299.95868
299.95622
299.95205
299.94732
299.95917
299.95558
299.9593
299.95068
299.94499
299.94884
299.94851
299.94791
299.95077
299.95366
299.95621
299.95782
299.96036
299.96285
299.96012
299.95782
299.95869
299.96182
299.96464
299.96725
299.96397
299.96632
299.96961
299.97058
299.96705
299.96472
299.96823
299.96561
299.96201
299.95936
299.96277
299.96525
299.96406
299.96182
299.95868
299.96131
299.96463
299.96692
299.96954
299.97187
299.97304
299.97071
299.972
299.97071
299.96812
299.96523
299.96274
299.95935
299.9562
299.95563
299.95492
299.95184