/*--------------------------------*- C++ -*----------------------------------*\
  =========                 |
  \\      /  F ield         | OpenFOAM: The Open Source CFD Toolbox
   \\    /   O peration     | Website:  https://openfoam.org
    \\  /    A nd           | Version:  7
     \\/     M anipulation  |
\*---------------------------------------------------------------------------*/
FoamFile
{
    version     2.0;
    format      ascii;
    class       volScalarField;
    location    "50";
    object      alphat;
}
// * * * * * * * * * * * * * * * * * * * * * * * * * * * * * * * * * * * * * //

dimensions      [1 -1 -1 0 0 0 0];

internalField   nonuniform List<scalar> 
25278
(
8.4842362
9.1786646
8.6080857
8.6076105
9.2488337
9.1787158
8.9945575
8.4846448
8.9936889
9.9852217
9.5122527
8.8903467
9.0253266
9.0849164
9.5699045
8.6089549
9.1804281
9.9887981
9.4255538
10.326326
10.262839
10.132479
9.726805
9.6865177
10.379604
9.6859601
9.7266799
10.341877
10.455759
10.602116
10.656743
10.447909
10.109458
10.368107
10.569882
10.541157
10.677336
10.604269
10.460105
10.140219
10.333958
10.481887
10.318765
10.470599
10.731265
10.770948
10.141851
10.349339
10.751884
10.590334
10.519892
10.239979
9.4807215
9.7627527
10.34663
10.511008
10.400009
10.229872
9.7314712
9.9383541
10.125673
9.9396815
9.7821026
10.319575
10.135308
10.078861
10.264272
9.6901173
9.4682334
9.5673898
8.8700119
9.1401644
9.4523518
9.7632123
10.060721
10.292459
10.571186
10.602913
10.131849
10.067259
9.8852672
9.5754224
9.9933814
9.4472593
10.087734
9.8368365
8.9252462
7.7962
8.4439025
9.1628171
9.327403
8.5703596
8.4327182
7.243269
7.4331454
8.5815988
8.8551759
9.5663664
9.7511342
9.0301575
8.8424622
7.6633348
7.9429456
9.0439611
8.3206
8.1730913
7.9166627
6.2552666
6.1242718
5.3246643
7.2885651
7.3506341
5.3428754
5.3876988
6.4257123
6.6366191
5.4518216
7.6819077
7.5952135
7.5892927
9.4422925
10.086796
9.2488188
8.4153809
7.2256974
6.1116852
5.3185859
7.2841511
8.9204281
9.8358115
9.8831451
10.065988
9.9870058
9.5681185
8.4310963
7.7856654
7.904549
7.3456164
5.3348741
6.2405221
6.4078939
5.3774432
5.4382337
7.674062
8.3048731
8.1598569
8.8410486
8.567848
7.4139168
8.5517338
9.5582964
9.1503888
9.3150512
9.5547255
9.9788999
9.7398542
9.0287055
7.9199626
6.6146394
4.6389934
2.9844687
2.9951668
4.6511429
6.5870458
8.2788654
8.1381348
7.5356387
7.6107565
5.3353437
5.2919209
6.3845777
4.5899786
3.1120881
2.9042901
1.3852964
1.6255088
3.1860014
3.178777
1.6411402
1.403699
2.9322843
3.1297982
4.5809656
6.3620423
7.6424235
8.8238753
9.0107411
8.2507416
6.5609037
5.3110352
5.2710673
7.4998791
9.4040473
8.1123743
7.5696478
7.9120589
5.3750539
2.7252136
1.1920371
1.17197
2.6853391
5.4049694
7.9579625
8.6252132
9.3902986
10.020232
10.3704
10.456902
10.452307
10.660092
10.54603
10.118917
10.340768
10.48752
10.681015
10.6115
10.468325
10.153214
10.329925
10.479639
10.624172
10.736231
10.650234
10.142015
10.652043
10.791361
10.891364
10.808909
10.77319
10.777263
10.836126
10.71502
10.599784
10.806423
10.737188
10.662702
10.75629
10.350354
10.262978
10.335015
10.596733
10.359504
9.7850879
9.9592859
10.144542
10.521969
10.415301
10.246997
9.7612714
9.9666676
9.8151962
10.337326
10.527911
10.250926
9.5127746
10.155741
9.6036806
9.504808
10.098912
10.281542
9.7233303
9.9227536
10.009263
10.149842
10.312521
10.454436
10.746884
10.667318
10.573007
10.503472
10.718253
10.803197
10.821518
10.836014
10.885014
10.912586
10.915446
10.840417
10.801678
10.691594
10.757015
10.645853
10.875497
10.821131
10.772946
10.434033
10.562966
10.394653
10.48412
10.571972
10.634813
10.68555
10.7913
10.651719
10.649407
10.735473
10.774483
10.834147
10.802225
10.593247
10.712128
10.620135
10.408384
10.547186
10.530792
10.450054
10.372791
10.284468
9.9697703
10.24322
9.8670998
9.6781331
9.2656499
9.5175901
8.9712399
9.4955818
9.873467
10.250187
10.068565
9.4041279
9.6850521
9.2863405
9.7805755
9.9854959
9.5365855
8.9875462
8.7229403
9.266984
8.2978948
8.7056301
7.9942842
8.3020463
8.9102704
9.1854562
9.4662107
9.6943728
9.9201356
10.112437
10.204519
10.068033
10.260774
10.1688
9.9591762
9.7378018
9.8491349
10.024988
10.080008
10.216537
10.113649
10.291924
10.352717
10.506217
10.407543
10.349244
10.15717
10.229397
10.024522
10.185794
9.9772691
9.9035229
9.8026652
9.6040594
9.475479
9.2030549
9.3298897
9.5851442
9.7217769
10.085529
10.413756
10.534523
10.220808
10.124642
10.301603
10.457801
10.381696
10.294757
10.124678
10.215399
10.084406
10.274349
10.183997
9.9773389
9.7586862
9.9335122
10.037203
9.815791
9.7081798
9.4988768
9.625734
9.86839
9.9620257
10.17176
10.361104
10.417614
10.512624
10.360942
10.242159
10.04014
10.195377
9.9878337
9.9152744
9.7263503
9.810621
9.886918
10.068167
10.362058
10.432558
10.696691
10.65395
10.608201
10.467888
10.428118
10.306487
10.359358
10.522759
10.577249
10.607197
10.682315
10.55373
10.521071
10.411592
10.455906
10.279241
10.410366
10.367078
10.314677
10.264649
10.109552
10.169891
9.9536526
10.119654
10.183467
10.228774
10.076849
10.018057
10.226984
10.084748
10.300258
10.497279
10.440095
10.24306
10.183394
10.114762
10.325407
10.262281
10.171374
10.071422
9.7013654
9.4828049
8.6701055
8.8637593
9.1115884
8.6568501
9.4166397
9.1858989
8.386313
7.4542848
8.1304444
6.9144772
7.2194656
7.4827158
8.3785478
7.6861751
6.5086274
6.2587269
5.3117181
6.7982972
7.9705037
8.9283673
8.0338568
8.7679073
8.996589
9.159044
8.2145073
7.9122138
7.6722563
6.313493
5.5446071
4.4895699
4.4745638
5.4022843
6.9519631
6.4028036
7.1049381
7.3591661
7.6877162
8.0205565
8.3637056
8.6704583
8.9669527
9.22645
9.4784659
9.5968673
9.3130083
9.1933605
8.8976831
9.0421326
9.3519613
9.4598433
9.701494
9.9031158
9.6909057
9.7731497
9.5316294
9.7925433
9.7062472
9.9443755
9.7686825
10.017241
10.246108
10.442362
10.740086
10.653348
10.560449
10.657406
10.289828
10.126295
10.296373
10.051116
9.6723052
9.372178
8.5875679
9.0707244
8.8227008
8.3171533
7.8774784
8.1184151
9.1016006
8.936839
8.7070676
7.5710536
7.8076707
6.2381327
6.8091365
7.5924266
8.33069
8.0844543
6.8561235
7.3660812
6.1669356
7.1852298
7.4443057
6.4083522
5.2296548
5.1595236
6.6685441
6.1652916
4.2983561
4.2599579
4.9642232
5.9743478
6.9471729
7.7175176
8.4044216
8.9318615
9.3928993
9.8936938
10.439526
10.713104
10.801276
10.819423
10.80764
10.889916
10.914667
10.911025
10.881929
10.687302
10.799949
10.839433
10.75457
10.640932
10.872888
10.831329
10.765848
10.817078
10.525129
10.420552
10.554686
10.382778
10.475684
10.566496
10.632125
10.695416
10.650685
10.603958
10.516093
10.350479
10.462164
10.421222
10.295693
10.096114
10.256345
10.358905
10.430584
10.361561
10.516719
10.550529
10.680096
10.603458
10.571856
10.404557
10.450651
10.272011
10.406129
10.223717
10.17703
10.111917
10.307766
10.158465
9.9399521
9.870917
10.058784
9.8559458
10.051963
10.159013
9.9877746
9.9191149
9.6926725
9.6162224
9.3267852
9.6007388
9.5053612
9.4241338
9.3049889
9.02239
8.8769336
8.5416129
8.6812062
9.0418061
8.6939879
8.5550363
8.1370986
8.2966314
8.4185468
8.8007347
9.1373152
9.4390102
9.1702923
9.4880932
9.3800734
9.6665997
9.9220447
10.152912
10.024972
9.9196841
9.6438868
9.8097009
9.5519348
9.3483234
9.472431
9.7684279
9.869503
10.126098
10.194773
10.311359
10.096086
9.9543353
9.8065073
10.091414
10.016564
9.9115387
9.7991898
9.6692133
9.7828177
9.4494484
9.6095583
9.4851413
9.3147161
8.9253122
9.1427569
9.2655834
9.0534026
8.5883489
8.8690426
9.1351623
8.9899977
9.2511967
8.929531
9.0554911
8.7510309
8.6140628
8.162231
8.5535372
8.692721
8.3197374
8.4404839
8.8693634
9.2481794
9.5795787
9.6727396
9.8552701
9.5814512
9.3481907
9.0918831
9.4772282
9.3780918
9.7157761
9.5600105
9.8942755
9.9720543
9.6556122
9.2732124
9.1688318
8.706797
8.9860735
8.532784
8.4119993
8.2857475
8.7304938
8.4372018
8.1693457
8.7235218
9.1658254
9.5611521
9.980156
10.48852
10.595335
10.550656
10.077161
10.156648
10.302198
10.711551
10.773017
10.740656
10.673989
10.231048
10.361637
10.423147
10.12692
10.208018
10.306276
10.393988
10.48964
10.430464
10.326101
10.274378
10.032154
10.167426
10.229706
10.101322
10.168575
10.289482
10.343113
10.528146
10.436993
10.229773
10.112616
10.356796
10.264506
9.9931991
9.9143925
10.042695
9.9674871
10.2337
10.174973
10.063494
10.126812
9.8305524
9.7464667
9.8907375
9.5693298
9.7573522
9.9327281
10.003417
9.8363155
9.5287488
9.7445068
9.6659764
9.4404847
9.1922025
9.2905511
9.6570498
9.4692296
9.372387
8.9241447
8.8165995
8.5354812
9.0715144
9.5114683
9.8764535
9.7941185
9.6796249
9.5774848
9.4588765
9.0264564
9.1654917
9.2976369
9.4114981
9.2814451
9.6960678
9.7801503
9.3842473
9.2898322
9.7202182
9.6338315
9.513595
9.4757471
9.3551396
8.8790625
9.0175725
9.0678121
9.1849297
9.1352406
9.5972849
9.6841881
9.2408161
8.6763481
8.7495506
8.8891078
8.7793425
8.9634396
8.8458904
8.6619848
8.5382518
7.9048912
8.0490994
8.3067547
8.4238799
8.1622767
8.2725011
8.0644404
7.9569519
8.6389526
8.5222356
8.4496974
8.3320426
7.6091989
7.741869
7.8485227
7.0220752
7.3099396
7.6671753
8.046007
7.9171727
7.2824712
7.7607034
7.897905
7.43003
7.5414316
8.1640891
8.2759254
8.642998
8.9749401
9.2697854
8.9163015
9.235196
8.9044802
9.2539713
9.5122544
9.782817
9.5505637
9.2526933
9.1559244
9.4314157
9.1599315
8.8130757
8.9161295
8.5271539
8.6297259
9.0013724
9.3467615
9.6068681
9.8644775
9.9265558
9.6706077
9.4243214
9.7073898
9.6331357
9.3424852
9.0122704
9.1027357
9.4253679
9.6651661
9.4101227
9.4926011
9.7667581
10.006568
10.217691
10.070152
10.132854
9.9842886
9.9119382
9.6144151
9.8196054
9.8912364
10.067706
9.8356728
10.043292
9.8050811
9.7473335
9.5082284
9.7518219
9.9938618
10.048231
9.8087401
9.5794217
9.845722
9.7792146
9.5044905
9.1916123
9.2767005
9.5797618
9.2696256
9.5694786
9.2927382
9.6129012
9.5318853
9.4479553
9.3613507
9.0747048
9.1717696
8.7616319
9.108843
9.0144006
8.6562092
8.5504009
8.129244
8.0171807
7.4486433
7.9645803
8.41067
8.8111674
8.2882213
8.158197
7.7028537
7.8428449
7.3269241
7.8425793
7.7002621
7.1674657
6.6129184
7.2184149
7.3322526
6.7558478
6.6466634
5.9317073
6.055783
6.7344926
6.8437404
7.4464889
7.9656124
8.0778514
8.5199382
8.0766914
7.5591036
6.9499378
7.5589478
6.9559145
7.6503055
7.7646866
8.3892058
8.7503352
8.858589
8.5076614
9.0326171
9.1435323
9.5654833
9.7428088
9.826163
9.6607024
9.2560271
9.4856832
9.697785
9.363159
9.267922
8.8679864
9.2018237
8.8274748
9.1830226
9.0927996
8.7292654
8.8279063
8.9249367
8.5157581
8.9282335
8.5319551
8.9748822
8.6051224
9.0808731
8.9688852
9.3883695
8.6327527
8.763411
8.1725857
8.0253022
8.4790269
8.3574253
8.2413891
7.6725003
8.186971
8.6237988
8.7257011
8.2989522
7.7885087
8.2950498
8.1864053
7.6716772
7.0613867
7.1823465
7.793033
7.1884657
7.8890298
7.359646
8.1283792
8.7652489
9.2816395
9.698935
10.040893
9.9714814
9.8809235
9.9539234
9.581798
9.4852343
9.607811
9.1765693
8.9984421
9.1098328
8.5104665
8.3871863
8.6478088
8.0024646
7.8874242
7.7785983
7.4090984
7.5097507
6.5909375
7.1247486
7.0275527
6.9323872
6.8236321
7.5603411
7.2112368
6.3390521
6.4444127
6.5148549
6.0792464
7.108455
7.1981721
7.0251056
7.9525837
7.847163
8.5655969
8.5736225
9.1404342
9.6004644
10.081051
10.552332
10.714853
10.350941
10.264481
9.9970977
9.4320467
8.8645866
9.5765393
8.8562636
8.1538119
7.5440941
7.6215406
8.2970067
6.6133805
5.3549943
5.3075086
6.4070537
7.6785887
7.9570639
9.0432156
9.7595498
10.000855
9.0506173
8.3230788
6.6464348
4.6773627
2.9251565
3.1287523
4.6126782
3.2049666
1.6419544
1.4035448
3.015486
5.4589665
5.3979419
6.4384595
8.1798512
9.4518967
7.6007445
8.1047846
6.3493067
4.5748191
3.190538
1.6423482
1.4045816
2.9978094
4.6305195
2.9139806
3.1165725
5.2573357
5.2923659
6.5445015
8.2409165
9.4016584
7.4933601
7.5611936
7.9024977
5.3501469
2.7010336
1.1929564
1.191295
2.710335
5.4303239
7.9708629
9.4860762
10.242166
10.522039
10.595372
10.331696
9.7734321
10.238081
10.141471
10.080843
10.266241
10.325678
9.7925378
9.6940017
9.471691
9.5777263
9.7443495
9.9525807
10.407981
10.519437
10.355411
9.9508558
10.137987
10.308223
10.661279
10.75624
10.823034
10.802476
10.675571
10.741839
10.776599
10.716175
10.600611
10.494288
10.441407
9.8976505
9.990434
10.166296
10.310477
10.234429
10.364306
10.42966
10.532854
10.821745
10.771746
10.664125
10.567906
10.138899
10.301244
10.45258
10.746932
10.837309
10.877874
10.648024
10.563556
10.430215
10.079951
9.9875305
9.8944107
9.832694
9.7920817
9.7890878
9.8230977
9.8995745
9.8667276
9.4484529
9.4939736
9.3934879
9.3459839
8.7888219
8.8610058
8.9765446
8.9061531
8.1928976
8.3044515
8.1787293
8.0662248
7.1230853
7.3016542
7.6211348
7.7488294
6.7989253
6.6829604
7.2334993
6.3616307
7.0650713
6.3276345
6.2292073
6.1414003
6.8558006
6.1956859
6.1240098
6.0689648
5.4585612
5.4827092
4.4968373
5.296122
5.2475397
4.4744657
3.8419442
3.7655538
4.9206444
6.03681
5.803611
6.8644853
6.7968717
5.7482177
4.6562526
4.5820186
3.2927392
3.4025414
2.3391946
2.8818543
3.640165
4.5098402
5.28104
6.02385
6.6403675
7.2250411
7.7196516
8.1902131
8.5905333
8.7295087
9.0919145
9.4131786
9.6949921
9.9452677
9.8347893
9.6777399
9.946488
10.049512
9.7998357
9.8982896
10.038184
9.7946813
9.8788831
9.6099208
9.5189248
9.2936358
9.6163815
9.5116699
9.3895622
9.5818561
9.285657
9.0398213
9.1827656
8.9342783
9.3175809
9.6500006
9.942
9.8321451
9.5279885
9.3673248
9.7087962
9.8200516
9.4991355
9.6068804
9.7534511
10.044432
10.148274
10.214312
9.9801395
9.7063554
9.3904221
9.1514227
9.523017
9.8407201
10.116319
10.308499
10.180499
10.606919
10.561712
10.454032
10.452711
10.717233
10.350062
9.1791884
8.6088077
8.4858246
8.9954596
9.0861591
9.727171
10.131045
10.262435
10.249302
10.526567
10.097183
9.5084732
9.5019754
9.7204411
10.279653
10.332771
10.150828
9.5958668
9.8076855
9.9572617
10.409721
10.5937
10.331473
9.7767449
10.241255
9.7514365
9.9490608
10.353035
10.516173
10.135002
10.30409
10.141129
10.002107
9.9199805
10.098326
10.100857
10.24822
10.319652
10.719811
10.777714
10.433994
10.533516
10.321047
10.405081
10.339922
10.291104
10.054699
10.120452
10.184198
10.242047
10.351257
10.533771
10.445334
10.368125
10.129588
10.064248
9.9935019
10.251816
10.196711
9.9211482
9.7852272
10.090876
10.003211
9.9286858
9.8333385
9.7217353
9.6058095
9.2262762
9.3557065
9.2290486
9.6231345
9.5071412
9.0926307
8.6263165
8.8025635
8.992453
9.1963822
8.7968861
8.5230686
8.672775
9.1190055
9.2319669
9.4273016
9.0489515
8.7893649
8.8959552
9.3322613
9.698714
9.56279
9.9122301
9.8193128
9.7387662
9.3421038
9.4665999
9.0395233
8.9241557
8.4099357
8.271983
8.022114
8.1668535
8.7493376
8.8647357
8.9709582
9.143574
8.6349746
8.526123
8.2800595
8.3885211
8.1877401
8.8347791
9.3480557
9.4410038
9.5367794
9.6542102
10.00309
10.067717
10.149871
9.8639775
9.942298
10.226837
10.279015
10.015343
9.6942474
9.8510086
10.001611
10.144275
9.9063347
9.8383808
9.7668005
10.020911
9.9533532
9.6914712
9.4791007
9.7873361
9.8623175
9.5627379
9.6434998
9.9335902
9.7735617
9.6934888
9.6106911
9.2472079
9.3399292
9.1003519
9.5172011
9.4264033
8.9984302
8.4879456
8.8206354
9.1217545
9.3909541
9.3020747
9.2046945
8.8467872
8.9500119
8.6071615
9.0255057
8.9225591
8.8059443
8.3793455
8.2223621
7.7613174
7.9014642
8.3201177
7.8629128
7.3760266
7.2157278
6.6953711
7.3082584
7.8476182
7.9866559
8.4900622
8.1505272
7.5529802
7.4026053
6.7758559
6.8903345
7.4251802
6.8214335
6.1881685
6.0577822
5.4170422
6.2371692
6.9755717
7.0918797
7.7984498
7.4635397
6.6359352
6.5207918
5.6642487
5.7043248
6.3037581
5.4788687
4.7265143
4.6874388
4.0817811
5.192072
6.1718909
6.2465965
7.1869998
7.9728058
8.6130371
9.1330374
9.5598984
9.4417924
8.9994564
8.9434567
9.4014389
9.5190738
9.079152
9.1937806
9.2472438
9.6769614
9.7598195
9.7207578
9.6373678
9.6354664
9.5168538
9.3993158
8.9916135
8.7632727
8.024554
7.665116
7.9037098
8.1937495
9.1464675
8.9162907
7.9512281
6.7713185
6.3023777
5.5268215
4.4738886
4.4548288
6.38897
6.9203609
5.3607375
5.2768683
6.2209394
7.4229624
8.3632254
9.1708675
8.6527952
9.467674
9.686226
9.4009344
8.6320946
9.0887258
8.8411617
8.1010318
6.8868533
7.1842975
7.4439549
6.4645474
7.6506427
8.3469668
8.6389946
8.3296094
7.9850345
7.6534658
7.3297425
7.084361
6.9425397
6.949647
7.7275736
7.8404051
8.4953848
8.4192643
8.5360359
7.8608261
7.96608
8.0816354
8.7277373
8.6497548
8.7565635
9.2953402
9.3952335
9.4464884
9.8581063
9.9155381
9.9832792
9.6267941
9.7391172
9.8245662
10.148687
10.207149
9.9054323
9.8063616
10.133508
10.070508
9.7183309
9.2846012
9.4396207
9.6064925
9.2027969
9.431141
9.5209464
9.7215697
9.3938902
9.6312112
9.5542689
9.4741272
9.1372433
9.0457574
8.709995
8.8110855
9.214179
9.304895
8.91181
9.2263602
9.3131126
9.0119382
8.5727055
8.9479551
8.850707
8.7520851
8.6525893
8.5503167
8.4421003
7.9858968
8.0977519
7.6089749
8.1343029
8.0230215
8.498939
8.1061339
8.6095541
8.717116
8.216879
7.7765578
8.3784629
8.2684638
7.6667869
6.9956147
7.5432591
7.6541453
7.0412545
6.9331366
7.4962915
6.9207623
7.4724057
7.349506
6.7739997
6.1807024
6.8034772
6.6699736
6.4144874
6.2108558
4.7713973
5.0063022
5.1586717
3.9208299
5.2260238
5.0697744
3.7832439
2.5590958
3.7493981
3.6912181
2.3702532
2.6195723
1.5087781
1.3158454
2.5165403
1.5541633
2.5918512
3.8376441
3.883162
2.7950617
2.6269645
1.6243089
2.801718
2.5663535
1.4375249
0.81746966
0.95162661
1.6639293
0.89957921
0.76775233
0.52440372
0.59952551
0.60812605
0.9114891
1.524178
2.6388213
4.319676
6.1822092
7.5819591
8.7134836
8.9441246
9.1195632
8.886024
7.9046569
8.1494014
7.8210039
6.26032
6.8576808
6.7077236
5.2095395
5.2921257
4.2880874
4.6743599
5.7640513
6.8093252
7.6182723
8.338669
8.883592
9.3581721
9.4786814
9.5236609
9.4024301
8.9455983
9.0821248
9.0223762
8.4569298
8.5427458
8.4231148
7.7442189
7.8778191
7.7523751
7.8590264
7.9655851
8.6845312
9.2460863
9.6871185
9.7300978
9.6436436
9.199673
9.3047475
9.4056452
9.7941517
9.7104463
9.5918262
9.4729982
9.578467
9.6971888
9.3220829
9.1861439
9.0463139
9.1895701
8.7549899
8.5654228
8.6913017
8.8792847
8.3518317
8.0898009
7.9421732
8.2113264
8.4787622
8.9570594
9.3393133
9.6874257
9.3926075
9.159242
8.6453102
9.4696342
9.6900388
9.0961058
8.6199646
8.3469262
8.8466231
8.1142008
7.4061979
6.8876481
6.2146241
6.464605
7.6390557
8.3631853
7.478962
7.216313
8.0108605
8.7242173
9.282324
9.7764339
10.150831
10.468225
10.662193
10.136436
10.145235
10.775858
10.81208
10.656068
10.384287
10.654223
10.60711
10.347431
10.461606
10.454108
10.118731
10.54854
10.576193
10.684134
10.611844
10.328683
10.490316
10.342766
10.070269
10.298459
10.252315
9.9826212
9.5338365
9.8772379
9.6886795
9.4029631
10.027772
10.375897
9.4088241
8.3114432
9.2768993
9.5047561
8.9893366
8.317836
8.992714
8.7292003
9.2883508
9.6906299
9.8782616
10.25346
10.072486
9.7816092
9.9857913
9.5374834
9.7103999
10.089874
10.552408
10.416528
10.294897
10.479722
10.738349
10.808483
10.839638
10.7408
10.780627
10.62791
10.718855
10.601352
10.694363
10.88746
10.915648
10.91892
10.795439
10.894698
10.805668
10.844215
10.760385
10.580353
10.499431
10.405492
10.319007
10.221463
10.140024
10.057777
10.003298
9.9673092
9.9647153
9.995133
10.046455
10.115193
10.190295
9.8785029
9.790769
9.6806595
9.7761933
9.6991848
10.067981
10.039494
9.6588227
9.5545076
9.5977283
9.097827
9.2250844
9.388121
9.4954008
9.3430176
8.7857311
9.0165818
8.8883647
8.6435436
8.4435588
8.5952808
9.2234387
9.1599036
9.0302572
8.3344167
8.4906598
7.5672583
7.7471737
8.0612899
8.4163678
8.266486
7.8956267
6.9452298
7.5061751
7.6734282
7.1245965
6.587145
6.4153826
7.573266
7.4252775
7.2432666
5.9858952
6.2873763
6.1947415
6.12816
5.8590286
5.8276717
6.9423333
6.9597304
6.8794233
7.0626964
6.9821972
6.0207453
6.0912804
5.8233523
5.8516973
5.8881005
7.0449165
7.2510628
8.0992036
8.7721577
8.6606666
7.9889203
8.2064428
8.810084
9.3026138
9.4362104
9.8112612
9.8932041
9.5358745
9.1063949
8.9208425
8.3194361
8.5848865
8.4714725
8.9979395
9.2026639
9.5847693
9.9122345
9.8009942
9.9292313
9.8169324
9.5084892
9.632807
9.4740232
9.0864776
9.2956569
9.1720192
8.7676416
8.9071506
8.6314437
8.7516106
8.8621591
9.3065403
9.6797905
9.9892973
10.107954
10.033534
9.7387447
9.8287139
9.9735067
10.209638
10.141739
10.041113
9.9362638
10.065705
10.167208
9.9394198
9.7889168
9.6645902
9.827478
9.5730214
9.3737477
9.4979945
9.6874711
9.4049731
9.1665681
9.0213638
9.2761057
8.9575928
8.6505657
8.3300619
7.9682796
7.6137924
7.2599402
7.3654493
7.7264614
7.0075838
6.5168842
6.4013949
6.8902385
6.1455303
5.5314444
5.018326
4.9870211
4.6048141
3.311706
3.4184968
3.8986162
3.8346408
3.7574142
4.9804454
6.1441718
7.1548791
7.4712584
7.5782455
7.956434
7.843053
7.1114839
6.5989819
6.6874646
6.205986
4.9824651
4.5027161
4.4668796
4.8774707
5.5436626
6.2713227
5.3884642
5.3398489
4.4774195
5.5101233
4.8977358
4.5233229
3.1406202
3.6696079
3.566974
4.4603353
4.4521368
5.5939417
5.6694734
6.4739935
5.534844
6.4424743
6.5771459
7.3290714
7.9224269
8.4141835
7.9104307
8.4050659
7.9298916
8.4211718
8.3129153
8.2055974
7.7207509
8.2424914
8.3510665
7.8352607
7.9536622
8.4612311
8.0063519
8.5509211
9.0258731
8.9229301
8.4369092
8.325888
7.8893174
8.0089814
8.5998229
8.7157905
8.8345647
9.1287807
8.6670057
8.2705539
8.1363088
7.4674974
7.3328734
7.8832545
7.7662869
7.1531883
7.2727249
6.5961403
6.4780621
7.2105351
7.0994799
6.3743696
6.2805041
5.5354862
6.3863434
7.1931589
7.911986
8.0208054
7.2951401
6.8030259
7.6700389
7.5670175
6.7169795
5.7495412
5.8028592
6.4724488
5.5984993
4.7362374
4.7274734
3.9533144
5.167271
6.3023438
7.2790701
7.3727384
6.3650979
6.0855074
7.191446
8.06943
8.1784949
8.2979443
8.4987327
8.742536
9.2431785
9.3411911
8.852478
8.6144482
9.1784326
9.0744491
8.9406208
9.0485354
9.5401943
9.9290949
9.8936384
9.8211984
9.8193924
10.246134
10.680748
10.681779
10.744536
10.371845
10.019358
10.086396
9.7296908
9.6363788
9.5897583
9.9863902
10.055385
9.6858417
9.2055077
9.2744555
9.3918953
9.5375392
9.081952
9.305489
9.407534
9.6086087
9.7966501
9.9708843
10.133742
10.287861
10.528843
10.759738
10.81249
10.597065
10.273856
9.5131999
9.4248446
8.8240085
9.4227119
10.129102
9.8643171
9.9866842
10.597301
10.523023
10.750143
10.812141
10.933225
10.786725
10.713854
10.904646
10.911956
10.884084
10.886131
10.805602
10.949342
10.937187
10.836707
10.855797
10.899736
10.872255
10.867827
10.90816
10.946497
10.935832
10.757945
10.215798
10.078013
10.670951
10.625032
10.439044
10.346697
10.548156
10.68141
10.834201
10.752313
10.785026
10.855239
10.831011
10.881663
10.79714
10.785018
10.723171
10.737588
10.69544
10.498441
10.595478
10.644891
10.622984
10.73937
10.725696
10.52412
10.594091
10.675227
10.74277
10.79178
10.877504
10.902868
10.800493
10.853132
10.82088
10.800054
10.749449
10.749866
10.522545
10.713037
10.78581
10.932581
10.911534
10.936864
10.948567
10.804533
10.885521
10.883742
10.836312
10.855676
10.946083
10.904204
10.867635
10.907825
10.853223
10.871929
10.899262
10.807279
10.780175
10.755396
10.719347
10.738094
10.673517
10.650449
10.496414
10.598105
10.621252
10.534111
10.572372
10.712713
10.767486
10.781415
10.729258
10.603013
10.677076
10.658613
10.525899
10.561775
10.527684
10.455714
10.489069
10.369184
10.323506
10.126856
10.283905
10.319585
10.179252
10.229417
10.412319
10.450247
10.554173
10.396762
10.366763
10.201674
10.331756
10.562223
10.780452
10.755985
10.720867
10.738887
10.622701
10.600394
10.500204
10.652983
10.67488
10.53655
10.573772
10.659495
10.76785
10.781541
10.677449
10.603782
10.72955
10.713433
10.653346
10.759348
10.920778
10.824436
10.922086
10.710757
10.615624
10.882419
10.887782
10.678933
10.723378
10.791541
10.709013
10.760614
10.805378
10.807378
10.621817
10.618023
10.619916
10.734979
10.715412
10.80797
10.766952
10.653069
10.63282
10.70868
10.587278
10.554794
10.527198
10.491193
10.458818
10.3288
10.372792
10.184262
10.322419
10.36883
10.397909
10.275117
10.451531
10.414552
10.232762
10.023916
10.203672
10.153864
10.262516
10.105083
10.150893
9.9626992
9.9022313
9.6450383
9.8795344
9.9288753
9.713845
9.7793465
10.019885
10.069944
10.272985
10.312462
10.484119
10.632386
10.76034
10.805228
10.807986
10.766829
10.652761
10.715222
10.708462
10.586744
10.621621
10.618136
10.799992
10.820708
10.815126
10.783846
10.787779
10.671593
10.734888
10.73333
10.681352
10.547742
10.626777
10.619858
10.602064
10.510516
10.34314
10.45388
10.438314
10.280978
10.396039
10.419591
10.331776
10.480124
10.486141
10.387494
10.369266
10.532542
10.443795
10.60597
10.74386
10.800309
10.902252
10.75664
10.214166
10.073741
9.8627618
10.437823
10.622572
10.83357
10.680695
10.751335
10.795639
10.880933
10.830834
10.85509
10.78387
10.783703
10.698357
10.791088
10.738411
10.790707
10.799322
10.819319
10.793444
10.776361
10.684981
10.727988
10.744088
10.688135
10.557411
10.637712
10.636167
10.584128
10.623408
10.72513
10.6989
10.760734
10.743499
10.773691
10.679016
10.662827
10.542611
10.604727
10.474187
10.495285
10.493767
10.628735
10.558602
10.403645
10.400129
10.504221
10.359203
10.435629
10.636091
10.790773
10.73887
10.58492
10.622913
10.724409
10.790149
10.799105
10.819344
10.815155
10.733204
10.681194
10.783767
10.787727
10.671558
10.532634
10.510938
10.602272
10.454366
10.438998
10.313671
10.484883
10.384927
10.557518
10.523942
10.675635
10.6108
10.584795
10.535586
10.611309
10.582458
10.40084
10.444681
10.349525
10.298613
10.502148
10.429116
10.469204
10.252376
10.193776
10.088017
10.347899
10.393352
10.154693
10.21924
10.308884
10.398801
10.48718
10.301871
10.25285
10.200502
10.066525
10.127733
9.8680412
10.031408
10.087841
10.138874
10.345919
10.236718
10.441488
10.358178
10.553843
10.522029
10.453598
10.48998
10.275675
10.010662
10.124151
10.063543
10.184796
9.9346907
9.9952609
9.8442804
9.7720181
9.6927364
9.9967144
9.9256026
9.7798755
9.8621437
9.5066681
9.6010162
9.9396453
9.8184484
10.134137
10.396859
10.607581
10.858376
10.825913
10.762377
10.886996
10.913166
10.88132
10.740576
10.685866
10.858866
10.841489
10.868617
10.835595
10.818934
10.845563
10.530748
10.478421
10.563665
10.625215
10.662214
10.490901
10.538818
10.596614
10.650569
10.665458
10.720991
10.583593
10.511757
10.480572
10.28233
10.321061
10.417436
10.221595
10.343822
10.369507
10.480122
10.485897
10.626525
10.547353
10.387234
10.200792
10.342557
10.331749
10.304852
10.281741
10.240317
10.03228
9.9933233
9.9310253
9.8824363
10.108884
9.9101396
9.9684652
9.7196448
9.6527033
9.3597614
9.6551309
9.7187612
9.4331313
9.3539505
9.0198502
9.1106834
9.4373349
9.5104009
9.7838888
9.9918498
10.031358
10.238951
9.8362579
9.5730654
9.8356873
9.575027
9.8386919
10.07239
10.116103
10.15098
9.9286427
10.10773
10.08351
9.8886119
9.6319436
9.8870207
10.083056
10.107558
10.304367
10.150207
10.114509
9.8871703
9.9278372
9.9619778
10.180036
10.200997
10.342803
10.153572
10.143631
9.9582687
10.143682
10.153376
9.9854438
9.9621062
10.180087
10.027539
10.252289
10.443837
10.605915
10.743799
10.744537
10.620215
10.556244
10.695668
10.693574
10.538356
10.352656
10.376607
10.463427
10.275391
10.159287
10.130846
10.094029
10.04859
10.183646
9.9493201
9.8978957
9.8394419
9.7747085
9.7049967
9.3972255
9.4770727
9.2059872
9.5629618
9.4801894
9.1105532
8.6840597
9.0432927
9.1347066
8.7422258
8.6374114
8.5295188
8.0753592
7.5374033
8.1340822
7.6129774
6.8790704
6.7299648
7.4010589
6.7511719
7.3886552
7.2636277
7.812061
7.6978268
7.5856914
7.0014749
6.8903567
6.2899649
6.3967885
7.0319043
6.394082
6.2911683
6.1856396
6.0886751
5.4221631
6.0319999
5.3874278
5.4908637
6.1177362
5.3667966
4.7130499
4.6106689
4.0102203
4.7657289
4.8342524
5.5281989
4.7921676
5.4796864
5.389774
4.6871502
4.0503223
4.1192684
3.4267531
4.0798514
4.1406945
4.7800837
5.4411878
6.2209378
6.3220347
5.5180834
4.8512484
5.6810919
5.5855125
4.9181644
5.6241082
5.7204574
4.9347778
5.6413777
5.5592617
4.8614547
4.1805319
4.2463389
5.0040389
4.206206
3.5240762
3.472463
2.6983953
3.266974
3.8557298
4.5405249
4.5146899
3.5993369
2.8853682
3.8349344
3.8175845
2.9004141
2.0969682
1.9689081
2.7285472
2.1252214
1.3337265
1.5118511
1.0646365
1.6029935
2.3671865
3.2402204
3.2429014
2.3469181
1.8922129
2.679501
2.6614642
3.3517903
2.6977549
3.3176086
3.9338147
4.6620729
4.6756687
3.9559727
3.0418225
3.8032233
3.8348429
3.0543642
2.4805075
2.4571421
3.3201635
2.7163153
1.9626621
1.9627649
1.3377146
1.7363703
2.277121
3.1044467
2.9581426
4.0251476
5.167988
4.8242156
6.007336
7.0235288
7.1059716
6.0427704
4.7835926
4.7481252
5.1739545
3.8845683
3.2681807
3.4105257
3.5478983
3.6428999
4.8810519
5.9411322
5.9320215
5.9964505
7.015436
7.854786
8.5316663
9.0759563
8.9403975
8.9907262
9.4352755
9.5533033
9.1241485
9.2383473
9.1906007
9.2922348
9.7186422
9.753499
9.6704032
9.729438
10.174157
10.60341
10.560557
10.499194
10.568265
10.753967
10.81999
10.802384
10.743805
10.370232
10.430072
10.775286
10.716872
10.314133
10.427865
10.769365
10.663116
10.300936
10.447438
10.742666
10.65748
10.732581
10.770961
10.142006
10.80728
10.881996
10.832692
10.872818
10.818192
10.528916
10.641946
10.557457
10.687565
10.594275
10.802882
10.833354
10.733525
10.773628
10.676599
10.605626
10.656986
10.448525
10.11093
10.46226
10.143931
10.321573
10.480959
10.567037
10.540548
10.333032
10.058129
9.7671079
9.3889382
9.2667246
9.5179812
9.9727681
10.240837
10.284379
9.6696066
9.8593647
9.4768532
8.9621503
8.6973883
8.272961
7.962755
8.2700015
8.9456794
8.6791861
9.2468298
9.6618801
9.3718371
10.010478
10.364953
10.340516
10.454055
10.600691
10.648765
10.379438
10.651024
10.789727
10.888921
10.913379
10.91004
10.753875
10.838095
10.798864
10.711202
10.618878
10.472505
10.173055
10.059181
9.933231
9.8184356
9.6954378
9.5937167
9.4975033
9.6134318
9.2156989
9.0792977
9.2099616
9.3396279
9.709679
9.8216701
9.9010935
9.8100244
9.4281912
9.3392816
8.8221813
8.7520372
8.645232
7.9597016
8.062717
8.1693862
8.0641225
8.7152886
8.6007323
8.4837322
8.4150273
7.7220341
7.8246123
7.9560652
8.1426026
8.7313289
8.6088408
7.9989677
8.2446624
8.7815516
8.902781
8.3817268
8.4975308
8.2549616
8.846375
9.3288596
9.4508779
9.5475108
9.122598
8.9526801
8.3626787
8.6060832
8.7138782
8.4724983
8.2788916
8.1713891
8.858667
8.8632773
8.9729239
9.4909175
9.4881895
9.8919176
9.9237593
9.8521142
9.438038
9.3922056
9.5323557
9.6291313
9.5870784
9.984758
10.053966
9.6833878
9.7230531
10.082039
10.014359
10.063703
9.9753631
9.9068765