/*--------------------------------*- C++ -*----------------------------------*\
  =========                 |
  \\      /  F ield         | OpenFOAM: The Open Source CFD Toolbox
   \\    /   O peration     | Website:  https://openfoam.org
    \\  /    A nd           | Version:  7
     \\/     M anipulation  |
\*---------------------------------------------------------------------------*/
FoamFile
{
    version     2.0;
    format      ascii;
    class       volScalarField;
    location    "50";
    object      k;
}
// * * * * * * * * * * * * * * * * * * * * * * * * * * * * * * * * * * * * * //

dimensions      [0 2 -2 0 0 0 0];

internalField   nonuniform List<scalar> 
25278
(
1143.636
1270.5004
1120.1505
1120.0536
1258.1133
1270.5706
1269.1839
1143.7274
1268.9314
1567.4536
1374.0827
1210.0327
1215.1554
1202.3913
2013.7241
1119.9447
1270.7139
2118.8412
2352.564
2220.8731
1752.2782
1599.1102
1391.81
1400.9496
1789.8916
1400.7217
1391.7193
1796.194
1923.5541
1956.9378
2174.0537
2104.4719
2539.5136
2272.0061
2360.9469
2444.9034
2479.5974
2615.512
2566.441
2848.3265
2688.3651
2743.727
2906.0888
2955.0852
2617.7133
2157.306
1610.2623
1779.1452
2302.7528
2311.189
2388.9054
2287.6865
2787.1823
2708.6096
2651.8391
2709.9938
2784.4368
2719.1527
3033.3673
2955.1314
3030.7275
3112.8375
3159.3954
2827.055
2759.6356
2782.9576
2850.5011
3180.2172
3095.5549
3075.0179
3318.7413
3282.4031
3203.0967
3085.3846
2900.1704
2746.5607
2361.4651
1957.138
1598.6013
1594.2603
1533.7469
2013.1502
2118.8374
2353.6486
1738.5284
1647.4164
2196.4561
2387.1487
2305.9567
2165.4383
2282.325
2455.2087
2306.6046
2460.4605
2616.1785
2454.5254
2562.2214
2354.0865
2513.384
2770.6807
2561.6216
2787.3512
2998.0639
2771.911
2917.6117
2680.369
2548.82
2650.3483
2485.9189
2440.5404
2404.476
2573.1472
2598.7864
2779.3574
2837.4781
3062.5186
2996.2252
2961.3927
2710.6383
2709.6783
2352.7645
1738.3628
1258.0855
2303.6904
2457.242
2483.378
2439.1921
2403.775
2195.7079
1647.2699
1533.3664
1594.0454
2117.5652
2011.8482
2303.9622
2385.6207
2546.93
2572.4537
2597.0677
2647.4326
2833.905
2777.4353
2993.6669
2960.151
2914.7858
2678.3305
2559.7508
2452.3732
2612.5235
2452.3435
2012.0676
2163.5017
2280.2848
2352.0769
2117.4432
2511.1448
2769.0437
2993.7816
3058.2474
2899.7097
2515.7645
2520.315
2904.8045
3057.4819
2913.9103
2679.0643
2706.9309
2954.9325
2981.6245
2768.2692
2834.1349
2699.6212
2366.8688
2492.3479
1648.5544
1659.6862
2387.0001
2383.9587
1665.1807
1656.2558
2494.6521
2366.4381
2695.3844
2829.3081
2783.4533
2558.6363
2767.4342
2909.4342
3051.923
2974.4435
2761.9395
2701.5221
2350.3027
2675.2959
2948.821
3154.1961
3213.0496
2639.3854
1660.3812
1650.2414
2633.5117
3221.3074
3160.7807
3105.5287
2918.9619
2598.6179
2272.1479
1923.4851
2105.1846
2174.7746
2445.9638
2540.9244
2689.5383
2744.9094
2480.5448
2617.3249
2568.4681
2850.3623
2908.1365
2957.0663
2753.7531
2354.9062
1934.4452
1610.0574
1936.3442
2366.7986
2479.5527
2167.022
2157.8705
2474.8668
2488.9703
2777.1037
2980.5144
2642.5628
2619.3769
2720.9092
2304.2271
1779.9898
1752.2386
2222.1806
2312.896
2654.3661
2711.514
2958.285
3033.9414
2712.5287
2787.6989
2722.4741
3037.5621
3117.2564
3164.4184
2830.6952
2390.8112
2289.2713
2790.9509
2762.9643
3079.7596
3100.5977
2786.1805
2853.9566
3185.2222
3260.7999
3239.2
3189.0353
3099.2827
3129.3225
2747.3967
2829.0821
2797.7206
2842.5064
2383.4937
2399.2744
2315.7216
2736.1502
2629.6672
2632.3165
2478.2362
2769.9836
2767.5149
2982.4705
2978.5371
3132.7086
2739.3083
2823.3094
2817.2701
3232.2338
3135.6737
3405.4381
3320.0242
3200.5918
3056.0268
2806.8005
2366.1837
1935.9836
1934.0882
2354.2543
2473.8811
2487.957
2640.9298
2978.5902
2775.8006
2752.5413
3023.751
2793.381
3057.0421
3186.1323
3175.5341
3141.039
3190.581
2983.1299
3233.6097
3121.2097
3310.6837
3437.3479
3624.1822
3437.2429
3234.3186
2984.1213
2901.2015
2920.4188
3121.8698
3312.9228
3087.5025
3192.742
3439.3832
3625.7654
3473.0673
3303.8249
3222.8268
3471.2484
3581.3095
3747.4282
3828.2304
3748.3829
3652.6145
3548.8752
3423.7679
3294.8654
3337.9136
3454.5965
3288.1899
3246.681
3414.1326
3545.4217
3597.3791
3473.2687
3297.4696
3353.6443
3495.366
3353.4114
3371.8471
3201.4922
3318.8606
3301.0653
3478.2007
3494.3936
3645.1124
3515.0448
3651.0958
3627.1787
3602.9373
3718.2033
3665.941
3759.031
3818.7973
3711.6966
3538.4084
3298.1928
3024.6536
3058.0436
3354.3488
3496.7919
3355.0082
3187.8147
3177.234
3142.7608
3296.6269
3339.4849
3456.9961
3290.537
3248.9291
3416.6942
3547.917
3425.3561
3474.694
3604.3775
3550.418
3668.5724
3720.457
3599.6706
3628.8775
3480.4072
3303.2689
3321.0058
3203.1947
3373.4416
3496.6464
3647.1261
3516.2895
3652.2761
3628.2165
3752.8597
3773.9989
3785.5072
3655.4311
3354.812
3368.8733
3058.9245
3200.6793
3206.2241
3380.8453
3372.6669
3502.794
3507.9951
3327.9303
3321.4116
3323.5889
3201.5447
3378.4231
3376.1078
3507.2656
3506.6031
3664.6813
3527.8578
3525.9722
3526.7474
3518.7905
3656.3708
3662.759
3793.8322
3666.9075
3666.0863
3671.1093
3799.2351
3797.2322
3664.5757
3764.2368
3605.3069
3408.1901
3413.5689
3604.516
3598.789
3590.3044
3404.5058
3385.8705
3370.3302
3323.7561
3338.8488
3206.5988
3110.1642
3427.5054
3583.6568
3655.3468
3425.3485
3287.7571
3492.2916
3588.6299
3558.5272
3315.2782
3612.6549
3788.5154
3734.2872
3765.0337
3747.5309
3569.1559
3481.3678
3572.089
3512.5811
3325.3025
3168.2485
3341.3936
3482.8357
3467.6465
3677.9231
3677.9456
3513.368
3545.1205
3238.9418
3378.7592
3530.9307
3644.2115
3743.8853
3710.4706
3874.2186
3887.0405
3899.2161
3904.1642
3896.5097
3874.1427
3827.2932
3761.3373
3653.7687
3712.8664
3811.1654
3749.006
3840.2176
3900.3714
3820.5936
3856.2063
3740.7416
3602.3025
3739.8798
3764.8455
3877.8514
3772.1549
3750.9407
3626.6004
3718.9323
3569.8916
3382.7983
3126.2263
2744.9857
2718.3828
2794.5017
2826.1999
3219.3152
3184.6278
3096.0301
3320.7568
3335.132
3419.6535
3647.9213
3579.2142
3423.1315
3485.0449
3503.1168
3667.8383
3460.6023
3475.6857
3334.6251
3503.0903
3667.085
3692.3419
3728.9792
3755.7763
3729.6707
3553.9791
3309.316
3579.6301
3558.6501
3609.1657
3784.6622
3736.3759
3620.941
3460.3483
3558.2776
3528.6801
3347.496
3495.7979
3728.2065
3820.5494
3858.1543
3840.9899
3773.1873
3667.8654
3506.062
3255.85
2862.6691
2381.6913
2397.7247
2314.5487
2166.4066
2478.4332
2477.2396
2630.792
2627.964
2980.6064
2766.1749
2768.7026
2976.6131
3129.9887
2737.2193
2733.83
2814.5886
2820.9776
3227.9456
3228.3736
3132.571
3402.6176
3317.9269
3198.8921
3054.8531
3057.8822
3198.9608
3204.5477
3325.8433
3505.8038
3379.243
3371.1406
3500.4299
3654.4616
3517.6441
3354.165
3368.2293
3524.8199
3374.7636
3376.8734
3199.777
3321.3082
3319.112
3505.0689
3504.4283
3662.6582
3526.6514
3670.0791
3665.2157
3665.8571
3525.5614
3660.6962
3791.9621
3783.477
3654.3154
3772.3493
3618.0249
3629.8384
3785.5886
3783.9258
3901.851
3891.7631
3978.2976
3878.3385
3868.7903
3841.315
3810.4853
3898.6396
3838.1603
3894.5533
3959.4203
3893.8556
3960.4178
3895.5926
3931.4641
3997.6942
4040.3007
3999.8794
3936.773
3854.6654
3929.8679
3837.9535
3801.1777
3685.7819
3542.4691
3367.3081
3433.4452
3384.2448
3559.1546
3494.2776
3625.0413
3687.9468
3748.5146
3607.6475
3636.8485
3450.0751
3471.3127
3401.6404
3587.318
3655.9864
3704.5126
3518.8903
3496.9182
3478.8357
3427.5893
3461.3628
3513.3714
3684.699
3653.6824
3601.7432
3632.5718
3752.6531
3726.4526
3790.4212
3815.993
3908.0252
3891.1242
3857.1375
3796.218
3741.0476
3823.7719
3890.5752
3935.0415
3868.6989
3916.542
3888.9418
3954.7259
3983.471
4026.3213
3976.2251
3895.69
3783.6071
3805.3224
3738.8962
3860.5522
3920.1307
3956.7603
3849.9614
3826.7776
3684.3256
3716.1512
3531.8658
3555.1378
3737.2602
3877.2663
3853.4142
3948.7649
3931.0609
3999.2355
3957.1209
3888.9694
3827.7462
3844.1253
3848.8729
3765.5889
3651.0892
3483.0268
3234.0806
2838.917
2871.4505
2896.4194
3293.4987
3270.8083
3281.9789
2861.5784
2868.1376
2894.1754
2886.6178
3305.4621
3307.531
3282.8709
3591.3879
3565.9205
3527.5704
3477.1421
3405.362
3410.8258
3482.4787
3472.4294
3665.6599
3595.8354
3601.5827
3672.5367
3674.215
3602.2797
3601.8659
3407.5236
3481.0068
3674.9747
3727.8166
3531.8118
3571.4867
3764.4525
3761.6649
3726.0848
3723.3621
3531.8667
3521.2642
3557.8953
3569.8671
3758.1454
3749.038
3715.4794
3864.4643
3818.5419
3750.6013
3757.867
3826.9134
3946.4838
3883.7124
3874.5117
3935.6648
3973.8422
3985.8267
3874.0921
3903.696
3892.8117
3993.6723
3975.3808
3980.727
3891.9733
3757.8147
3578.4474
3554.8842
3535.6536
3550.4585
3497.6234
3662.1995
3715.2594
3704.0293
3736.0668
3747.365
3569.7855
3593.9632
3769.4682
3775.6024
3602.7983
3578.5509
3558.9411
3562.9852
3510.0254
3670.307
3723.4444
3720.7827
3753.1513
3755.8218
3582.7531
3607.2062
3778.3569
3899.7594
3899.4989
3897.8994
3872.8556
3867.2536
3829.5276
3834.9876
3771.4395
3845.6438
3909.6386
3912.5404
3953.5114
3950.4964
3978.0955
3972.755
3944.8581
3874.1578
3836.3821
3836.477
3773.4856
3837.3049
3900.6658
3904.0961
3921.8977
3937.5663
3952.9602
3961.4318
3893.9739
3908.3011
3921.9851
3989.3781
3976.7673
4020.7638
4004.2371
4032.9837
4027.1074
4002.6131
3954.8153
4023.0016
3962.435
4027.1906
3956.7773
3869.422
3765.6314
3879.4542
3963.7259
3938.1331
3841.8085
3929.2523
4000.8121
4027.9982
4069.0129
4089.4742
4045.3401
3970.7959
3878.8152
3773.1186
3784.6702
3892.8895
3991.4921
3903.363
3893.2976
3979.4091
4046.1405
4059.8547
3984.1485
3892.2733
3990.3467
3997.8495
3907.5221
3795.5143
3662.5908
3761.1524
3762.0659
3833.5517
3831.4442
3953.4203
3889.3305
3892.0218
3797.4739
3910.9345
3790.6015
3902.55
3894.9764
3990.3693
3895.3394
3786.2281
3791.284
3903.0429
4004.5478
3912.4174
3908.8569
3998.7555
4069.4872
4076.9199
3997.24
4076.2811
4003.53
4071.5128
3994.7079
3989.7015
3982.2871
3970.9776
4020.6459
4033.5317
4090.1636
4054.5971
4041.43
4074.8846
4054.8627
4062.8607
4033.1173
4033.92
4047.6234
4037.3123
3996.1238
3994.629
3926.0903
3935.4688
4003.41
3995.7044
4009.493
3941.852
3925.9918
3890.2172
3921.9435
3989.1955
3954.6884
3887.9156
3826.197
3895.8421
3957.5105
4002.9901
4040.6545
4053.5708
4083.9504
4066.2522
4077.8198
4072.6555
4036.2999
4065.4329
4032.0194
4051.6985
4074.9868
4054.0059
4046.5004
4061.2188
4070.1327
4007.1208
4017.1301
3910.7999
3879.8249
3883.3739
3915.3994
4024.6797
4000.2483
3957.6498
4049.5629
4042.9904
4102.0992
4064.4961
4114.2539
4068.9764
4058.9689
4104.9786
4117.0784
4126.5959
4150.711
4123.7411
4144.3887
4111.4736
4127.7968
4081.1233
4072.3846
3994.2447
4083.371
4094.1876
4125.342
4110.562
4116.0647
4101.8227
4084.7989
4089.742
4100.1699
4086.5875
4102.3113
4117.884
4117.4434
4124.1975
4106.5144
4096.9992
4062.9262
4085.8429
4109.7977
4080.4429
4094.1495
4071.3698
4065.1944
4014.7298
3920.1739
3780.1473
3594.5854
3582.1344
3597.8893
3611.1264
3793.1311
3782.5213
3770.4386
3908.2292
3915.0452
3927.7045
4014.1165
3998.2346
3999.973
4047.1909
4025.1612
3995.5911
3979.8864
4009.7553
3990.5846
4025.2795
3994.0611
3950.1984
3884.1807
3886.5513
3871.8641
3849.64
3916.1515
3959.043
3925.823
3963.8123
3993.6978
3983.9995
3969.1573
3941.2801
3874.2742
3875.0928
3756.3084
3583.1845
3293.9707
2896.7352
2381.8556
1779.3987
1752.6114
2120.5279
2353.2974
2565.6388
2357.374
2564.5549
2680.6503
2707.6092
2955.8426
2915.7245
3060.3783
2984.1129
2770.3095
2836.9395
2790.5007
3000.0106
2772.4951
2515.1837
2121.3655
2773.6029
2918.6444
3064.1138
2909.4201
2499.1707
2371.5995
2703.873
2392.8622
1670.2225
1662.106
2526.4518
2997.1944
2782.3247
2840.5263
2683.6767
2356.2506
2713.6168
2674.7292
2828.2049
2694.1714
2386.8339
1667.0116
1658.4526
2518.6336
2897.678
2489.7094
2363.2388
2760.6721
2972.3599
3050.3603
2909.0364
2350.3144
2700.9511
2948.0312
3153.5193
3210.3064
2632.0475
1663.0881
1667.6984
2642.5711
3224.5137
3161.9033
2787.7634
2288.0322
2389.127
2312.1879
2221.6521
2709.8958
2720.38
2760.4526
2783.0725
2850.604
2827.9648
3160.6208
3180.5881
3096.154
3075.9679
3034.8234
3114.3225
2785.4134
2711.3851
2653.1128
2956.807
3032.4677
3097.8198
2719.7276
2303.5615
2315.2429
2397.8834
2887.0125
2894.3516
2868.7124
2862.2995
2872.2983
2839.7789
2862.8266
3256.2017
3235.4298
3272.1572
3283.1046
3305.8455
3307.7467
3283.8681
3229.0428
2821.6468
2815.3337
2827.1159
2795.4189
3186.2313
3220.8797
3128.0418
2746.1877
2735.0557
2738.1078
3131.2155
3134.241
3229.6971
3560.042
3584.278
3599.6307
3608.4714
3611.991
3611.7008
3607.1004
3620.5375
3625.156
3803.0827
3799.9178
3789.071
3791.9341
3917.4882
3917.0038
3930.3628
3931.0191
4007.4012
4010.0958
3993.359
3990.0888
4008.0711
4017.3464
4032.7987
4052.174
4039.5076
4016.3363
4050.0804
4008.134
4058.2258
4004.3556
3975.6908
3941.0654
3999.5214
3947.6251
3903.7346
3841.0523
3781.4488
3842.0401
3709.3598
3812.0158
3749.071
3646.0689
3550.9627
3601.4652
3782.03
3884.0628
3864.573
3912.4452
3849.1498
3801.0394
3692.6277
3743.8717
3523.6951
3477.3707
3164.3575
3305.0118
3467.8674
3622.3315
3737.4683
3831.4842
3893.1038
3932.0609
3943.6614
3928.9178
3892.2588
3957.7895
3893.6762
3804.5363
3689.1844
3545.9097
3497.6435
3563.6981
3388.2741
3437.4934
3612.1909
3641.1747
3572.9289
3722.1532
3742.1876
3863.6214
3840.9199
3900.5976
3788.2659
3753.1369
3692.7119
3628.4735
3744.5173
3801.538
3862.0415
3897.9159
3796.6609
3659.5367
3483.8714
3432.6111
3607.4357
3639.7157
3467.3284
3519.4099
3691.6236
3722.886
3689.9756
3501.954
3454.0228
3475.0859
3660.071
3809.8051
3924.8338
3963.1193
3855.7455
3709.8047
3523.5207
3223.6194
3275.6689
2874.8011
2899.5687
2866.2199
2865.9017
2383.0853
1779.8071
1270.5899
1119.9548
1143.5988
1269.2634
1202.1461
1391.5531
1598.3806
1752.075
2288.9631
2390.4352
2785.9618
2790.2959
3100.0435
3184.6091
2853.8808
2829.6996
2762.1155
3078.3548
3162.8687
3114.5029
2785.9987
2311.9041
2221.229
2709.4598
2720.6691
3034.9493
2955.6006
2652.4212
2710.5954
3031.133
3096.1846
3186.2536
3237.4144
3260.3119
3297.5556
3298.2238
3309.4128
3286.1202
2864.4325
2870.6085
3286.494
3231.2455
3531.2764
3480.4854
3486.0277
3475.9993
3669.5897
3676.3715
3677.8525
3678.4438
3604.7383
3410.3692
3484.2224
3535.3123
3731.6955
3730.3357
3727.897
3535.7793
3525.669
3720.3911
3755.0746
3563.0645
3560.6788
3537.8554
3561.5402
3542.3154
3489.431
3658.864
3711.9837
3723.616
3557.3203
3504.41
3670.427
3781.5416
3774.5524
3760.5008
3732.807
3834.5763
3853.1601
3916.8785
3823.807
3861.1785
3832.9092
3937.5464
3957.2748
3983.6568
3884.7367
3743.6148
3765.2677
3584.8023
3600.5557
3576.8024
3755.7282
3743.9431
3876.4663
3838.6749
3923.1837
3859.3274
3857.7224
3921.7897
3845.0103
3883.0371
3907.6342
3900.7759
3991.0672
3963.8741
3962.4661
3990.0012
3985.1737
3909.4146
3783.7962
3777.663
3790.0648
3777.3251
3587.7573
3599.5184
3574.4943
3763.4431
3766.5611
3569.907
3575.1592
3768.7681
3920.5761
3887.7827
3837.4089
3764.9532
3894.8633
3892.2401
3886.9139
3760.9741
3753.6655
3877.7048
3940.4698
3822.7649
3831.1339
3950.919
3957.6174
3835.4618
3884.729
3879.3826
3869.9296
3980.0015
3991.7629
4014.5832
3910.0021
3899.8781
4001.4911
4063.0802
4053.4365
4025.384
3974.0459
3957.7936
3932.759
3998.7964
4025.8139
4059.7484
4007.3189
3980.9954
3940.0554
3988.5886
3921.9079
3940.9752
4008.7569
3997.0347
4011.2533
4000.4536
3930.9126
3899.1871
3930.72
3930.141
3997.5331
3964.3786
3971.3488
3988.1109
3919.6992
3901.2107
3967.9943
3997.8562
3966.6492
3910.6651
3841.0396
3771.6482
3859.5655
3899.4518
3965.7486
3965.6652
3952.6032
3935.6505
3868.7012
3806.4708
3867.7937
3922.4728
3835.1205
3743.3276
3679.5431
3594.6813
3758.3389
3842.4711
3906.4404
3938.2965
3916.8508
3846.6155
3729.4647
3565.9736
3512.8349
3676.1926
3678.2546
3516.4672
3569.5684
3731.5375
3763.7811
3761.7486
3585.5648
3609.6057
3613.435
3589.3385
3588.9659
3569.2619
3515.9848
3481.9409
3340.4691
3166.6922
3512.2635
3676.6201
3674.363
3465.1639
3323.0018
3509.271
3567.5763
3543.3501
3235.6176
3375.458
3526.9463
3708.3438
3738.8805
3636.3508
3474.4225
3562.1326
3583.1198
3487.9669
3284.5152
3106.8472
3203.2468
3334.996
3421.6936
3650.5655
3578.8858
3422.9054
3553.0778
3310.0017
3606.0676
3781.4702
3739.5962
3758.8063
3728.4258
3868.1701
3890.3243
3898.12
3893.8229
3882.6209
3871.3004
3863.866
3864.8827
3849.5666
3853.5373
3783.2611
3783.2144
3846.276
3912.9425
3953.45
3957.4553
3884.283
3884.1501
3909.1839
3786.1873
3799.0807
3796.8526
3613.2317
3603.8277
3616.3211
3799.6933
3786.2898
3790.2182
3595.7628
3601.3349
3793.0855
3807.7941
3619.156
3612.78
3804.0562
3944.3241
3935.2964
3916.5491
4024.0823
3999.963
4005.2634
3961.6261
4053.4508
3997.2698
3992.5588
3985.22
4057.2642
4043.8877
4079.7574
4094.6924
4037.9417
4047.1894
4106.2191
4066.7408
4073.7918
4115.1638
4148.1063
4125.3199
4115.9626
4104.0869
4088.7054
4068.4457
4039.7169
4055.2233
4085.553
4077.1453
4082.647
4052.5106
4031.1848
4040.9847
4006.3983
4034.0684
4070.634
4062.6336
4042.442
4013.8382
4031.9105
4012.4956
4042.4519
4073.788
4044.8491
4011.6679
4045.229
4009.7647
4044.3463
3999.397
3960.9825
3899.0881
3964.194
3896.475
3741.2594
3569.4178
3144.3808
3426.5533
3589.8493
3319.9259
3600.1569
3436.4174
3157.1557
2765.4162
3200.8462
3325.4567
2981.2826
2921.4879
2231.5177
2232.4336
2874.2659
2304.2031
2902.8512
3357.9487
3229.7753
2670.8568
2790.6542
2306.5746
2979.5987
3051.6993
2322.587
1640.1529
1656.4439
2245.5172
1608.079
1586.9525
1192.432
1185.0202
1199.6985
1624.1951
2243.0645
2928.5348
3350.8964
3530.4127
3504.032
3335.3065
3476.4825
3462.443
3320.1275
3505.4886
3670.6208
3668.1606
3694.4821
3733.4128
3561.9154
3466.7702
3628.7417
3500.2859
3695.0633
3802.5679
3850.2035
3838.0425
3774.0363
3670.6899
3510.3833
3563.3998
3560.1946
3507.0673
3669.2719
3722.4526
3723.6547
3837.067
3838.2022
3774.7879
3843.1398
3906.6034
3901.42
3942.2526
3970.2819
3900.3829
3778.83
3607.6156
3604.2602
3579.986
3754.7943
3777.2843
3771.8721
3595.7917
3571.6391
3552.1863
3499.1547
3485.0859
3537.8614
3706.85
3717.3763
3664.2416
3653.5943
3768.5735
3774.1769
3837.8672
3832.6994
3916.5173
3913.0277
3848.5913
3852.4777
3847.9151
3755.8254
3635.4675
3463.5695
3421.9248
3284.254
3107.5632
3205.0806
3337.1453
3581.9595
3650.9272
3487.8521
3425.6091
3556.8845
3583.3938
3312.4362
3563.749
3742.172
3759.8379
3732.6578
3787.9566
3612.0866
3582.9549
3473.3895
3312.6608
3087.2587
2849.8999
2567.9859
2175.133
1599.6128
1610.5189
2158.3701
2167.3395
1937.5309
1791.244
1935.6802
1958.325
1797.8336
1924.8846
2105.6189
2541.0009
2446.4272
2362.5708
2481.0839
2616.9588
2907.7114
2745.4869
2690.0114
2901.9107
2747.9639
2984.9202
3192.5462
3439.5091
3235.1684
3122.6034
2920.5728
2599.9242
2273.5346
2921.4868
3224.4074
3305.4851
3438.6714
3626.0753
3749.0392
3626.4205
3473.8047
3313.3332
3122.9521
3235.2467
2985.0136
2902.1878
3088.1866
3193.212
3439.6159
3550.9825
3299.1801
2794.9342
3025.5874
3143.0985
2956.8578
2619.118
2642.2824
2489.3829
2356.1108
2475.4362
2754.3847
2777.6885
2980.2901
2982.192
2629.246
2631.8912
2478.5051
2367.8748
2479.7337
2767.8788
2770.1143
2977.7696
3321.0143
3407.3414
3478.804
3529.2607
3567.3291
3592.866
3609.4065
3619.0711
3623.1348
3622.9542
3618.1954
3608.2548
3615.1707
3597.3135
3788.4431
3784.6926
3798.4127
3802.9977
3810.9684
3625.4342
3630.36
3814.5303
3809.0696
3805.85
3940.3943
3936.9665
3928.2914
3934.3277
3944.1012
4038.1852
4035.7087
4026.2571
4027.0205
4024.2423
4036.3752
3948.3286
3949.8413
3941.3105
4021.9383
4034.7362
4067.145
4073.8702
4084.9409
4093.6597
4080.3985
4069.209
4061.3178
4090.6074
4108.5052
4082.4627
4054.6525
4030.9557
4056.2666
4037.7413
4029.1376
3988.1934
4007.383
3983.2582
3957.0613
3936.5956
3905.6373
3953.9184
3955.3255
3913.6421
3925.1369
3860.9755
3824.8561
3888.9529
3866.3548
3907.811
3939.1604
3985.4053
3997.6564
3975.482
3901.4619
3876.1022
3947.3374
3954.171
3875.8026
3749.6455
3738.8995
3557.1769
3580.7133
3760.5915
3895.227
3900.8649
3981.9595
3984.8263
3957.4112
3870.4945
3856.8121
3719.0391
3534.3377
3515.7151
3481.2289
3429.9161
3604.645
3656.7517
3687.3362
3819.2821
3793.6735
3729.4773
3831.0853
3894.6661
3911.7996
3952.7126
3979.4018
3880.5811
3740.0812
3557.4526
3521.2474
3499.4289
3687.371
3707.5138
3658.7931
3473.6218
3452.3361
3435.7263
3386.3053
3322.7356
3369.4096
3545.3604
3610.4119
3561.7288
3496.7461
3627.7763
3690.7882
3751.6372
3688.6983
3804.1001
3860.1184
3799.1563
3743.6572
3826.3995
3871.8404
3892.7263
3898.2891
3891.0813
3876.1812
3942.1272
3957.8962
3956.6189
3922.3671
3855.0575
3889.8443
3848.5236
3789.2692
3734.592
3789.5902
3746.6688
3528.4693
3481.4689
3561.0776
3613.3106
3648.2355
3830.041
3931.2734
3967.2294
3984.8462
4015.0278
4030.6491
4000.8111
4000.8387
3966.2011
3998.3088
3963.3075
3862.3562
3814.0376
3809.8551
3851.9899
3916.6862
3980.9405
3890.5918
3856.1639
3749.4988
3884.0643
3821.2651
3780.4574
3548.2451
3634.0672
3660.132
3782.0509
3811.2368
3944.9738
3970.9883
4032.8375
3948.8358
4030.3108
4054.1461
4100.7431
4126.8721
4132.5643
4134.7422
4138.8782
4138.0473
4140.0689
4125.5793
4107.9198
4101.4695
4104.7067
4122.0984
4121.4225
4138.3408
4136.2378
4133.8785
4122.5628
4078.373
4067.5725
4108.8539
4092.0416
4085.6942
4104.3152
4078.7988
4091.3846
4101.3224
4086.5267
4133.6784
4133.8119
4119.8363
4111.7931
4092.3661
4117.2211
4097.6235
4071.1631
4093.5863
4043.6785
4018.3391
4070.3494
4044.7338
3989.9612
3955.8321
3879.0823
3966.5062
4009.2753
4008.2588
4037.5355
4040.5429
4010.1405
4024.5691
3994.9476
3978.6034
3910.271
3943.0831
3999.3081
3913.5925
3817.8173
3784.2986
3682.7312
3853.9716
3948.4369
3980.2757
4009.9382
3979.6127
3959.0148
3999.6948
3981.1251
4001.3093
4005.2635
4009.5219
4009.8458
3916.5268
3927.864
4024.0519
4024.7029
3936.0911
3923.9542
3926.2288
3938.678
3806.6823
3625.8829
3629.9757
3617.4378
3616.9131
3308.8125
2889.1871
2889.5404
2896.417
3310.5497
3622.7046
3629.2038
3815.5805
3811.3891
3814.3188
3626.9629
3633.5406
3818.6133
3954.9378
3954.2773
3950.4165
3940.3209
4043.0365
4030.87
4035.3165
4008.1712
3963.0906
3894.812
3796.9767
3661.4185
3344.3158
2766.7533
2315.7137
1896.3715
1754.1691
1374.4446
1381.2703
1224.4011
1380.6182
1717.568
1558.2717
1568.0646
1896.7402
1885.927
2297.3204
2316.3437
2448.3598
2115.968
2101.4271
2413.5908
2438.2367
2732.6696
2740.7088
2960.8355
2600.7904
2593.6528
2943.4776
2914.88
2700.8216
2680.3038
2395.9146
2542.8228
2561.1674
2665.345
2239.6857
1718.7378
1700.2343
2173.5695
2043.965
1847.3888
1835.1188
2201.5169
2231.5246
2357.0144
2334.8151
2605.9154
2634.444
2840.6261
2497.8345
2473.03
2797.2589
2743.7637
2560.9977
2305.121
2021.0758
2286.3586
2527.3368
2404.3011
2430.7912
2518.553
2138.4317
2486.4694
2873.8621
2936.8518
2566.6881
2596.4115
2644.2856
3034.7458
2883.6958
3116.5927
2966.2207
2727.05
2296.6713
1885.4973
2100.2503
2115.5368
2447.39
2437.2947
2592.1525
2599.3456
2958.9003
2739.4008
2731.4846
2941.4969
2912.9999
2559.5399
2412.7171
2394.9208
2541.283
2881.9126
2679.2374
2699.6222
2991.2944
3022.9786
3034.5865
3186.9042
3183.1214
3307.7703
3309.2977
3498.1286
3364.6072
3362.8639
3493.5258
3484.3756
3293.7075
3170.6232
3164.5115
3288.2049
3475.6059
3345.0996
3350.5232
3505.3457
3340.4691
3343.5765
3516.9441
3514.2857
3654.6518
3658.7452
3795.2031
3660.4729
3661.1895
3792.9487
3787.4135
3647.7237
3639.2817
3498.9016
3648.1607
3652.0173
3778.2284
3610.9054
3341.0171
3023.9814
3035.72
3188.669
3184.9764
3364.5622
3366.198
3500.4242
3311.5746
3310.1397
3495.8106
3486.6843
3352.3071
3172.5768
3166.5171
3346.9955
3477.9552
3290.6631
3296.1798
3384.9949
3099.0193
2699.6041
2260.6075
2708.1246
3117.5446
3216.9945
2790.3344
2783.3812
3199.096
3168.9807
3069.7446
3360.4858
3271.9761
3148.0293
2992.151
3304.0223
3284.0017
3453.6704
3297.3128
3317.7846
3136.4627
3261.4619
3449.796
3463.552
3328.2234
3483.3137
3500.3323
3506.5547
3515.5066
3518.1635
3660.7062
3656.6942
3794.5033
3662.1086
3652.6011
3648.8343
3781.8678
3641.21
3649.7202
3788.7299
3907.6249
3778.6161
3786.0555
3618.5645
3784.9397
3785.6285
3910.1876
3910.8309
4005.3516
3898.3458
3901.5067
4006.6721
4004.8366
3906.7285
3901.2617
3780.7013
3769.3126
3626.778
3461.3445
3269.3138
3145.9958
3134.6975
3259.2762
3448.043
3316.4038
3326.4417
3482.055
3303.5901
3283.617
2965.3701
3114.9842
3100.1503
3222.1161
3237.1155
3429.6123
3296.0996
3281.4289
3411.0327
3577.7719
3436.5815
3452.803
3470.4667
3613.3512
3757.2911
3622.0186
3630.8981
3760.3104
3583.4573
3557.1232
3734.0821
3603.7691
3589.4123
3723.6365
3741.3143
3596.4149
3701.1556
3530.4848
3324.6752
3032.3856
2642.0046
2237.8988
1717.6105
1698.2566
1557.7982
1846.6024
2042.1193
2355.6848
2230.4767
2333.58
2470.578
2496.0831
2838.579
2633.5331
2604.8792
2794.1018
2652.3352
2918.9417
2879.0712
3027.5261
3054.4233
3074.3328
3194.9072
3174.8986
3363.0644
3234.7863
3254.5211
3386.7085
3554.5616
3410.9109
3229.6879
3193.006
3362.5015
3206.3148
3181.052
3004.2476
3118.1736
3144.3388
3334.099
3303.373
3470.5929
3335.2476
3489.9269
3515.5896
3543.2689
3389.362
3530.3297
3677.8499
3701.1557
3562.715
3695.6031
3511.9522
3230.1872
2919.8177
2881.1664
3194.0978
3364.1047
3207.7434
3029.2763
3055.3682
3075.4273
3101.4436
3282.3424
3412.2555
3223.6139
3238.9478
3430.8041
3597.617
3614.7517
3471.4034
3622.4736
3631.41
3770.5092
3628.6811
3733.4943
3565.2594
3578.6752
3378.7666
3454.4094
3459.5868
3473.4432
3398.3238
3399.8998
3600.4117
3595.9556
3671.2067
3674.7537
3473.474
3525.5073
3525.2775
3726.0978
3728.9448
3766.8637
3565.4716
3566.4988
3764.6945
3758.3194
3718.9694
3663.4201
3587.9021
3753.4047
3759.4908
3762.8191
3836.6185
3834.0544
3962.531
3893.027
3888.8065
3882.1253
3745.1423
3821.0792
3654.8696
3710.8474
3506.8753
3511.9581
3553.2616
3548.9595
3750.8246
3912.2481
3875.2438
3882.0897
3828.7331
3959.3961
3953.7057
4002.4953
4007.1367
4008.806
3886.5272
3887.8982
3922.0076
3921.5597
4037.5758
4037.2039
3918.3199
3941.2384
3785.0349
3581.1077
3256.2126
2830.5282
2340.0935
2318.1886
2793.4143
2746.1936
2724.5422
3132.4981
3188.834
2770.2024
2795.5525
2818.9976
2856.4355
2863.5903
2837.9448
3273.4573
3298.2508
3281.6605
3251.9634
3226.3782
3558.5523
3530.3445
3488.4826
3435.3395
3424.7267
3349.1392
3550.7701
3627.2006
3641.3343
3810.1383
3796.4803
3719.5061
3860.1136
3758.3365
3742.1049
3603.8662
3589.7637
3437.1838
3578.4946
3724.2755
3850.8543
3719.3699
3733.9213
3750.9819
3760.3648
3774.4165
3893.6323
3895.0434
3902.0088
3898.6883
3785.6382
3912.4074
3911.6777
4007.6951
4006.6174
4081.4815
3997.7959
4000.3649
4083.8561
4080.7914
4133.6749
4138.992
4084.5083
4084.858
3997.3291
3894.8813
3893.5834
3774.3696
4001.6546
4082.7064
3995.239
4083.1712
4002.0372
3902.1983
3892.7556
3881.7881
3985.8371
3873.8072
3880.492
3994.6387
4078.2144
3986.6226
3880.6475
3873.8537
3751.2074
3881.3532
3891.9487
3994.0655
3985.4921
3972.7882
3867.2404
3850.4461
3719.3462
3844.8699
3857.2686
3965.8065
3857.0731
3844.8829
3958.3406
3972.9881
3867.3258
3961.5828
3844.7702
3702.3556
3531.9376
3326.7488
3310.0438
3512.1196
3588.0991
3384.5644
3401.0995
3608.0946
3779.4663
3759.6793
3682.6404
3826.2305
3900.0553
3918.1104
3933.1245
3944.6997
3872.4043
3985.318
3993.0879
3997.5535
3999.6977
3999.4199
4078.3635
4080.9861
4126.3492
4059.2421
4057.3565
4121.826
4157.7703
4132.5407
4137.4977
4169.4053
4161.636
4151.7986
4153.127
4131.5068
4148.2692
4129.3049
4088.6918
4066.7579
4113.4725
4062.1597
4112.4575
4092.3166
4120.9558
4100.8064
4076.3073
4040.173
4006.4794
3945.4145
3980.5113
4043.0323
3984.4857
3949.6397
3903.7834
3839.5991
3743.5464
3828.0633
3738.3846
3804.2177
3895.543
3802.1848
3675.6002
3605.5922
3454.4586
3622.4981
3682.4644
3809.5236
3689.0702
3817.5172
3752.8278
3619.3359
3463.296
3525.9999
3323.7691
3517.5741
3564.696
3722.0633
3847.9204
3941.555
3976.7096
3884.1479
3760.2545
3887.6277
3850.6459
3729.5406
3855.9812
3892.6891
3773.1914
3899.0369
3862.9308
3735.2569
3572.9503
3612.9442
3768.1331
3604.821
3412.5491
3371.0796
3113.8619
3347.3799
3549.4437
3721.2696
3677.5419
3518.1175
3278.4705
3505.4687
3447.6456
3222.122
2963.4045
2980.0295
3329.6435
3165.513
2668.098
2694.6935
2225.1537
2610.1813
2964.0521
3252.1638
3302.1456
3011.4059
2727.65
3068.0573
3011.7053
3254.4425
3024.9672
3274.1082
3473.2587
3647.785
3703.6365
3531.607
3325.0535
3560.4871
3509.0522
3268.2727
3009.3084
3055.501
3323.8313
3081.3093
2763.3775
2706.5835
2327.7856
2691.6445
3039.775
3365.4079
3394.4129
3647.6739
3813.741
3777.243
3886.9397
3928.3752
3970.1345
3928.1125
3815.056
3844.8992
3885.3431
3711.4551
3625.4657
3603.7592
3576.2119
3526.9631
3724.1554
3822.9469
3821.6903
3885.5737
3927.3477
3911.8907
3845.4465
3730.8247
3677.5671
3674.611
3511.4959
3564.6004
3727.8822
3760.0915
3763.3805
3785.4896
3613.3604
3608.3171
3584.4347
3574.6197
3273.8379
2873.7969
2899.3984
2841.699
2795.9502
2303.3573
2314.9049
2398.8513
2896.0856
3309.8619
3284.6976
2869.5887
2863.6048
3284.277
3229.5291
2815.5708
2827.4491
3220.5651
3126.2743
2745.2748
2718.8893
2617.6345
2157.1306
1610.0119
2166.2801
2627.7913
2734.2113
2737.3586
2821.7291
3228.6413
3129.7807
3132.6164
2979.8062
2977.696
2640.7501
2487.43
2353.7329
2473.5111
2479.0818
2615.6718
2173.7738
2104.2027
2538.9486
2566.5547
2847.7854
2905.4309
2742.7372
2359.8958
2444.3356
2687.2978
2898.5413
3084.2466
2917.2197
3308.7956
3435.3631
3189.3528
2981.408
2744.3376
3118.4555
3230.87
3433.2095
3620.9312
3468.225
3218.1905
3575.3857
3741.6033
3619.2888
3466.2955
3299.8472
3117.8502
2915.6937
2596.3831
2270.8759
1795.9398
1922.8928
1956.5602
1934.0547
1790.199
1936.1211
2365.743
2477.9037
2476.7513
2630.618
2975.7491
2767.8165
2765.0251
2774.7551
2751.5113
2954.3731
3245.509
3320.0699
3384.4389
3428.925
3463.7951
3486.7617
3502.3947
3555.3222
3720.8965
3667.964
3655.4732
3708.5403
3539.1965
3558.492
3581.658
3598.4577
3774.8747
3782.4028
3907.4763
3908.6292
3883.3188
3952.5988
3980.132
3982.7541
3955.1151
3882.566
3844.5759
3781.2764
3782.3332
3848.505
3851.2587
3914.5051
3918.0308
3841.9636
3778.4698
3854.0156
3854.7949
3770.5865
3834.5768
3918.6729
3959.3858
3958.8627
3879.7557
3753.0229
3740.1537
3761.6603
3896.5691
3904.5689
3986.2182
3986.4519
4005.3742
4005.7681
4002.7329
4000.4702
3925.5321
3926.3302
3938.8933
3809.3526
3808.7096
3629.7391
3624.605
3612.0981
3795.0541
3798.5938
3805.1951
3809.969
3813.8131
3626.4131
3633.1907
3817.9451
3814.1234
3627.9301
3621.4264
3611.0446
3614.5275
3601.6908
3787.4655
3797.1078
3783.0766
3596.8042
3584.824
3773.6298