/*--------------------------------*- C++ -*----------------------------------*\
  =========                 |
  \\      /  F ield         | OpenFOAM: The Open Source CFD Toolbox
   \\    /   O peration     | Website:  https://openfoam.org
    \\  /    A nd           | Version:  7
     \\/     M anipulation  |
\*---------------------------------------------------------------------------*/
FoamFile
{
    version     2.0;
    format      ascii;
    class       volScalarField;
    location    "50";
    object      nut;
}
// * * * * * * * * * * * * * * * * * * * * * * * * * * * * * * * * * * * * * //

dimensions      [0 2 -1 0 0 0 0];

internalField   nonuniform List<scalar> 
25278
(
7.2272487
7.8188882
7.3327424
7.3323385
7.8784929
7.8189364
7.6620456
7.2275975
7.6613013
8.5062287
8.1032206
7.5732906
7.688235
7.7389183
8.151891
7.3334817
7.8203892
8.5090075
8.0292103
8.7965227
8.7425796
8.6314463
8.285865
8.2516728
8.8423485
8.2512018
8.2857607
8.8099433
8.9066884
9.0316557
9.0783429
8.9002329
8.6122685
8.8324123
9.0045848
8.9794708
9.0957808
9.0338745
8.9106971
8.6387366
8.8035132
8.92996
8.790937
8.9203434
9.1421324
9.1758791
8.6396484
8.8166159
9.1596581
9.0217265
8.9618161
8.7230767
8.0767619
8.3168408
8.8137793
8.954343
8.8600731
8.7145455
8.2907395
8.4666546
8.6265637
8.468274
8.3341514
8.7914887
8.6338094
8.58584
8.744513
8.2558639
8.0665495
8.1508805
7.5563083
7.7866096
8.0522388
8.317284
8.5701918
8.7681515
9.0056953
9.032336
8.6309121
8.5757819
8.420553
8.1565951
8.5129133
8.0477041
8.5933279
8.3793416
7.6026665
6.6403967
7.1922909
7.8045485
7.9451167
7.3004325
7.1827578
6.1695422
6.3315325
7.3100148
7.5430904
8.1486592
8.3064586
7.6925582
7.5322582
6.5278831
6.7663716
7.7043184
7.0879761
6.9618983
6.7434213
5.3281955
5.2163596
4.5353115
6.2080452
6.2613751
4.5510787
4.5895553
5.4736819
5.6536769
4.6444998
6.5440401
6.4697328
6.4646975
8.0434804
8.5925309
7.8784809
7.1680251
6.1546117
5.2056658
4.5301455
6.2042934
7.5985699
8.3784704
8.4187502
8.5747039
8.507495
8.1503867
7.1814082
6.6314442
6.733128
6.2571085
4.5442773
5.3156726
5.4585501
4.5808358
4.6329439
6.5373671
7.0746116
6.950654
7.5310887
7.2983305
6.3152002
7.2846087
8.1420249
7.7939872
7.9346229
8.1387711
8.5005982
8.2968794
7.6913576
6.7468574
5.6350109
3.9522875
2.5429955
2.5520891
3.9625529
5.6114406
7.052424
6.9321166
6.4189778
6.4834259
4.5452726
4.5079622
5.4386352
3.9100668
2.6513245
2.4746756
1.1807195
1.3851024
2.7142882
2.7081497
1.3984226
1.1964014
2.4986062
2.6664727
3.9024508
5.4195119
6.5101254
7.5164726
7.6760704
7.0285403
5.5892689
4.524675
4.4902788
6.3885881
8.0109265
6.9102345
6.4484956
6.7403469
4.5796544
2.322629
1.0163095
0.99921226
2.2885336
4.6049876
6.7793533
7.347685
7.9994137
8.5358886
8.8343635
8.9076605
8.9039829
9.0812024
8.983613
8.620327
8.8093084
8.9347593
9.0989119
9.0400412
8.917699
8.6498093
8.8004474
8.9280517
9.0513204
9.1466173
9.0728257
8.6397958
9.0745296
9.1939121
9.2787439
9.2084931
9.1778
9.1809973
9.2314825
9.1292539
9.0308769
9.2066034
9.1471858
9.0836616
9.163421
8.8175023
8.7427021
8.8039202
9.0271785
8.8247328
8.3358649
8.4844811
8.6426418
8.9636802
8.8731113
8.7291269
8.3161306
8.4912709
8.3623534
8.8066145
8.9686509
8.7324006
8.1040653
8.6511953
8.1817935
8.09771
8.6029052
8.7592373
8.2841703
8.4542379
8.5278366
8.6474489
8.7858266
8.9073436
9.1559087
9.088577
9.007577
8.9482747
9.1311847
9.2039963
9.2193647
9.2321309
9.2737894
9.2973993
9.2993431
9.2364478
9.2033496
9.1095232
9.1654905
9.0712372
9.265913
9.2200611
9.1788841
8.8908993
9.000342
8.8569524
8.9333176
9.007117
9.0612488
9.1043
9.1938561
9.0742479
9.07212
9.1459715
9.1786359
9.2297937
9.2030034
9.0252894
9.1267788
9.047881
8.8672499
8.9857084
8.9722083
8.9025969
8.8367163
8.7608452
8.4937148
8.7264408
8.4067971
8.2450214
7.8944313
8.109016
7.6441047
8.0903467
8.41222
8.7323755
8.5768668
8.0111921
8.2509084
7.9120615
8.3320751
8.5071107
8.1251984
7.6579989
7.4317431
7.8942587
7.0690581
7.4169912
6.8124017
7.0747129
7.5925804
7.8271183
8.0649808
8.2600423
8.4511831
8.615482
8.6946485
8.5785467
8.7420586
8.6629113
8.4854966
8.2968478
8.3926446
8.5416584
8.5883077
8.705844
8.6174179
8.7693041
8.8217389
8.9509208
8.8678436
8.8175522
8.6549602
8.716974
8.5432417
8.6795554
8.5035392
8.4396413
8.3535129
8.1846363
8.074683
7.8423669
7.9518143
8.1682795
8.2832893
8.5930062
8.8718216
8.9753903
8.7094813
8.6267776
8.7775527
8.909185
8.8442973
8.769591
8.6258981
8.7039251
8.5925115
8.7536399
8.6758604
8.500979
8.3146479
8.4625621
8.5520675
8.3647052
8.2717918
8.0946337
8.2031238
8.4090684
8.4893893
8.667415
8.8276754
8.8764612
8.9563826
8.8287684
8.7278839
8.5565917
8.6877333
8.5125626
8.4496555
8.2895987
8.362149
8.4276772
8.5812856
8.8304302
8.8906861
9.1141834
9.0775269
9.0382714
8.9204616
8.8862204
8.7830713
8.8283969
8.9665727
9.0131962
9.0386238
9.1016115
8.9936585
8.9659427
8.8730377
8.9107648
8.7611458
8.8716745
8.8348578
8.790027
8.7470443
8.6161735
8.6679189
8.4849085
8.6256212
8.6801602
8.7184929
8.5898446
8.5398835
8.7166847
8.596152
8.77869
8.9449825
8.8960176
8.7298158
8.6786719
8.6197743
8.7977378
8.7432782
8.6657249
8.5795261
8.2652071
8.0781701
7.3859249
7.5518231
7.7634262
7.3763634
8.022907
7.8255666
7.1457742
6.3512176
6.9265384
5.8907638
6.1518262
6.3772734
7.1395992
6.5501753
5.5478645
5.3344002
4.5270556
5.7920209
6.7913153
7.6060033
6.8439951
7.4694377
7.6653128
7.8036046
6.9997088
6.7422886
6.5374572
5.3792251
4.7239393
3.8267383
3.8147431
4.6052966
5.9248347
5.4570373
6.0561188
6.2728339
6.5523797
6.8362002
7.12788
7.3893528
7.6409748
7.8623162
8.0754103
8.1782759
7.9376995
7.8338387
7.5838288
7.7075729
7.9706433
8.0634251
8.2676546
8.4391196
8.2586351
8.3298523
8.1255043
8.3467007
8.2724395
8.4743233
8.3250402
8.536067
8.7294937
8.8970306
9.1500977
9.0756925
8.9968668
9.0800861
8.7673679
8.627374
8.772061
8.562249
8.2404521
7.985028
7.3173302
7.7286099
7.5168486
7.0868383
6.7120547
6.9178259
7.7546648
7.6144072
7.4176222
6.4512191
6.6532067
5.3167008
5.8031074
6.4702823
7.0988169
6.8873656
5.8410446
6.2760649
5.256163
6.1226606
6.3445368
5.4623967
4.4581382
4.397353
5.6814913
5.2529684
3.6637705
3.6318198
4.2332116
5.0945387
5.9216328
6.5785093
7.1618343
7.6114068
8.0020332
8.4294588
8.8939442
9.1267834
9.2023122
9.2175504
9.2073892
9.2775082
9.2986691
9.2960266
9.271132
9.1058344
9.2018638
9.2355871
9.1633623
9.0669712
9.2636419
9.2281108
9.1727775
9.2165166
8.9687145
8.8793394
8.9932377
8.8468051
8.926089
9.0024527
9.0589553
9.1130843
9.0747355
9.0346454
8.9608343
8.8207722
8.9155492
8.8803256
8.7738271
8.60467
8.7399624
8.827745
8.8890003
8.830136
8.9621987
8.990883
9.0997009
9.0353603
9.0085361
8.8669716
8.9062032
8.7548893
8.8680287
8.714137
8.6746428
8.6189942
8.7841137
8.6581147
8.4731633
8.4139865
8.5732749
8.4007095
8.5668652
8.6584738
8.5136916
8.4550208
8.2637492
8.1981937
7.952997
8.1849901
8.1034193
8.0326253
7.9308639
7.6907313
7.5661328
7.28027
7.4010779
7.7072228
7.4119829
7.2917278
6.9375794
7.0744538
7.1799496
7.5041826
7.7897512
8.0456391
7.8174035
8.0871791
7.9943314
8.2374949
8.4544509
8.6499919
8.5416532
8.4508445
8.2174048
8.3580246
8.1383684
7.9654826
8.0725366
8.3239141
8.4106417
8.6279187
8.6872512
8.7857441
8.6038116
8.4835193
8.3579539
8.599037
8.5344207
8.444854
8.3478518
8.2375912
8.3357391
8.0526969
8.188836
8.0820933
7.9374118
7.6054855
7.7903206
7.8966525
7.7162176
7.321117
7.5598977
7.7861889
7.6619159
7.883416
7.6090904
7.7186568
7.4598954
7.3412692
6.9583404
7.290277
7.4106384
7.0935699
7.1979518
7.5618684
7.8834792
8.1645352
8.2447227
8.3995798
8.1676043
7.9696131
7.7518495
8.0786284
7.993248
8.2799776
8.1476198
8.4307945
8.4980444
8.2297767
7.9052969
7.8154028
7.423214
7.660657
7.2756804
7.171559
7.0614425
7.4406872
7.1915709
6.963147
7.4334674
7.8104486
8.145198
8.5030221
8.9355331
9.0272002
8.9893255
8.5865625
8.6541523
8.7788241
9.1265506
9.1790224
9.1516234
9.0947401
8.718366
8.8299338
8.8821707
8.6307722
8.6999578
8.7829566
8.8577632
8.9384172
8.8877638
8.79971
8.7552691
8.5502632
8.6650007
8.7183525
8.6094953
8.6669107
8.7694081
8.8150346
8.9711354
8.8942191
8.7189526
8.6195613
8.825832
8.7478259
8.5182195
8.4512268
8.5601102
8.4959174
8.7208688
8.6704498
8.57616
8.6305282
8.379679
8.3077023
8.4302037
8.1576809
8.3173422
8.466052
8.5266252
8.3849795
8.1244985
8.3074912
8.2401949
8.0488883
7.8380333
7.9222743
8.2328103
8.073344
7.9904183
7.6102472
7.5178519
7.2787115
7.7337636
8.1072331
8.416432
8.3452867
8.2476588
8.160991
8.0583791
7.6920387
7.8111129
7.923536
8.0212948
7.9107
8.2621054
8.3348278
7.9990693
7.9187524
8.2836829
8.2089948
8.1064816
8.0743481
7.9699579
7.5665143
7.685224
7.7279805
7.8285684
7.7862952
8.1779733
8.2531276
7.8770561
7.3975541
7.4598515
7.5786256
7.4840406
7.640643
7.5396302
7.3831326
7.2758763
6.7382618
6.862104
7.0814502
7.1824498
6.9598033
7.0549093
6.8777548
6.7849469
7.3645235
7.2641605
7.2024076
7.100235
6.4863252
6.6004606
6.6912951
5.9881394
6.2333743
6.5376091
6.8601327
6.7480559
6.2094531
6.6159326
6.7347405
6.3365059
6.4331618
6.9620987
7.0588084
7.370952
7.653034
7.9033211
7.6036776
7.8742435
7.5939268
7.8901405
8.1092989
8.3381078
8.1416834
7.8891921
7.8056364
8.0388288
7.8085746
7.5147194
7.6038796
7.273966
7.3623923
7.6773538
7.9697706
8.1902168
8.4079878
8.4613885
8.2451729
8.0366369
8.276363
8.2126653
7.966425
7.6866736
7.7643124
8.0373487
8.2405267
8.02448
8.0948307
8.3269464
8.5300087
8.7086855
8.5835974
8.6368915
8.5109754
8.4495072
8.1975551
8.3715589
8.4323787
8.581954
8.3854543
8.5607699
8.3594775
8.3107221
8.1080025
8.3145547
8.5189006
8.5650158
8.3626085
8.1685763
8.3941209
8.337649
8.1050344
7.8400963
7.9122007
8.1686452
7.9061076
8.1600192
7.9254448
8.1965994
8.1278703
8.0562898
7.9820402
7.7388297
7.8220242
7.4744844
7.7691016
7.6881013
7.3840824
7.2929769
6.9349782
6.8379446
6.3549386
6.7938383
7.1728281
7.5127981
7.0670988
6.9532612
6.5665999
6.6884233
6.250048
6.6885434
6.5648612
6.1126772
5.6396402
6.153588
6.2539985
5.7632477
5.6672589
5.0602889
5.167895
5.745896
5.841177
6.3540316
6.7951607
6.8925866
7.2675486
6.8910892
6.4519147
5.9338427
6.4508741
5.9376494
6.527527
6.6261414
7.1562896
7.4632986
7.5560812
7.2578184
7.7031468
7.797728
8.1554495
8.3059745
8.3767822
8.2363327
7.8932363
8.0882919
8.2683233
7.984786
7.9040057
7.5651548
7.8483814
7.5312895
7.8327263
7.7558049
7.4478266
7.5319199
7.6140844
7.2671178
7.6166304
7.2803526
7.6557657
7.3417369
7.7451255
7.6501255
8.005688
7.3644978
7.475387
6.9740474
6.849049
7.2348125
7.1311274
7.0316026
6.548959
6.9862265
7.3570698
7.4445288
7.0823479
6.6496171
7.0796112
6.9863069
6.5492305
6.0303872
6.1344378
6.6524804
6.1381415
6.7328036
6.2822422
6.9352049
7.4758251
7.9139082
8.267867
8.5571971
8.4976282
8.4209102
8.4835622
8.1683238
8.0856821
8.1898703
7.8239412
7.6724745
7.7678454
7.2590546
7.153473
7.3752402
6.8272482
6.7281877
6.6339324
6.3193098
6.4066025
5.6252194
6.0800445
5.9955244
5.912692
5.8180573
6.4438165
6.1467114
5.4055931
5.4969496
5.5587349
5.1873923
6.0631665
6.1411694
5.9937047
6.7824984
6.6914541
7.3020922
7.30891
7.7907063
8.1806875
8.5898705
8.990754
9.1282737
8.8179779
8.7439794
8.5160813
8.0347451
7.5511134
8.1573298
7.5440232
6.9454828
6.4261845
6.4926165
7.0678927
5.6338972
4.5620182
4.5212459
5.4577978
6.5408874
6.7784162
7.703695
8.3136345
8.5192811
7.7100002
7.0900996
5.6620547
3.9849133
2.4924593
2.6655288
3.9294201
2.7304494
1.3991134
1.1962708
2.5694121
4.6505938
4.598283
5.4845501
6.9676613
8.0516524
6.4744434
6.9037614
5.4086523
3.897202
2.7181675
1.3994521
1.1971498
2.5543646
3.9450516
2.4829998
2.6551985
4.478572
4.5087589
5.5752801
7.0201601
8.0088884
6.3830311
6.4412874
6.7321947
4.5584187
2.3020038
1.0170814
1.0156805
2.3098389
4.6265895
6.7903448
8.0813263
8.7249423
8.9636475
9.0260201
8.8011009
8.3259468
8.7215516
8.6390636
8.5875344
8.7461934
8.7966858
8.3430418
8.2591724
8.0694981
8.1596894
8.3017193
8.4792637
8.8668674
8.9615251
8.8212711
8.4773116
8.6370541
8.7821518
9.0824495
9.1633672
9.2206147
9.2033309
9.0960852
9.1526273
9.1820466
9.1304693
9.0316805
8.940445
8.8955499
8.4328285
8.5117754
8.6623563
8.7858466
8.7212339
8.8321893
8.887677
8.9752418
9.2204645
9.177783
9.0857977
9.0032212
8.6381088
8.7770745
8.9057136
9.155914
9.2331825
9.267857
9.0729561
9.0007529
8.8875326
8.5901259
8.5112449
8.4323672
8.3797091
8.3452847
8.3427327
8.3715697
8.437188
8.4093445
8.0549418
8.0936541
8.0076582
7.9672543
7.4941065
7.5555305
7.6544612
7.5945694
6.9887191
7.0837064
6.9760063
6.8801993
6.0782895
6.2304395
6.5025781
6.6120815
5.8044659
5.7048553
6.1739446
5.4329532
6.0320884
5.4057355
5.3202017
5.2431846
5.8503532
5.2879494
5.2249529
5.174574
4.6547445
4.6783443
3.8388757
4.5204575
4.4764771
3.8178456
3.278088
3.2149224
4.1990546
5.1495455
4.9507605
5.8538676
5.7936377
4.9018927
3.970756
3.9102581
2.811434
2.9033708
1.9961138
2.458954
3.1059904
3.8470589
4.505063
5.1370492
5.6628554
6.1594204
6.5813768
6.9805459
7.3218033
7.442022
7.7497305
8.022571
8.2617113
8.4742561
8.3793959
8.246267
8.473677
8.5625888
8.3507044
8.4352176
8.5539426
8.3472305
8.4197584
8.1919309
8.1134972
7.9222848
8.1959535
8.1060109
8.0006322
8.1638542
7.9127795
7.7044057
7.8267996
7.6155525
7.94101
8.2233329
8.4708231
8.3759007
8.118606
7.9822695
8.271306
8.3675059
8.095085
8.1876366
8.3121395
8.558179
8.6468407
8.7039633
8.5055787
8.2734546
8.005701
7.8027205
8.1177573
8.3871958
8.6203079
8.7833151
8.6745239
9.0371115
8.9988074
8.906314
8.9051912
9.1303171
8.8172559
7.81934
7.3333595
7.2286019
7.6628136
7.7399801
8.2861831
8.6302319
8.7422408
8.7310197
8.9675081
8.6014351
8.1004052
8.0953001
8.2817108
8.7576289
8.8027384
8.6470151
8.1751441
8.3559622
8.4832696
8.8683658
9.0246013
8.8009103
8.3287725
8.7242463
8.3077647
8.4757876
8.819235
8.9587541
8.6345305
8.778659
8.6400377
8.5217466
8.4518778
8.6046586
8.6068134
8.733114
8.7937919
9.1336457
9.1831194
8.8915616
8.9759714
8.7956457
8.8673266
8.8115891
8.7695884
8.5695676
8.625914
8.6803658
8.7295769
8.8220923
8.9760005
8.9014633
8.8356174
8.6342378
8.5786567
8.5182346
8.7363968
8.6890273
8.4562349
8.3408817
8.5995917
8.5246883
8.4601527
8.3787278
8.283565
8.1832079
7.8619734
7.9730748
7.8653416
8.1999381
8.0994815
7.7484654
7.350937
7.5008173
7.6627134
7.8360091
7.4972817
7.2648061
7.393148
7.7721876
7.869303
8.035254
7.7143332
7.4937056
7.5856582
7.9557608
8.2666205
8.1511002
8.4469939
8.36832
8.2985339
7.9624996
8.0683375
7.705592
7.606401
7.1694842
7.0506553
6.8382454
6.9625823
7.4576678
7.5569517
7.6485838
7.79534
7.3637136
7.2697337
7.0603717
7.1540521
6.9831306
7.53271
7.9685473
8.0475948
8.1298191
8.2295843
8.5246438
8.5801908
8.6503305
8.4083518
8.4752347
8.7161589
8.7603976
8.5373597
8.2652603
8.3982161
8.5259362
8.6467614
8.4454007
8.3876893
8.3265976
8.5416294
8.4837033
8.2620064
8.0819234
8.3430041
8.4072782
8.153623
8.2225307
8.4681265
8.3323976
8.264042
8.1930698
7.8850788
7.9645633
7.761152
8.1144568
8.0366377
7.673782
7.2407093
7.523399
7.779066
8.007358
7.9309092
7.8467675
7.5432008
7.6324733
7.3414632
7.6962339
7.6072808
7.5067442
7.1444242
7.009627
6.6164582
6.7384359
7.0943111
6.7058914
6.2919461
6.153846
5.7099446
6.2301682
6.690029
6.8104621
7.2381598
6.9493101
6.4414172
6.3119283
5.777433
5.8780143
6.3332884
5.8200898
5.2808949
5.1678645
4.6210678
5.3179727
5.947623
6.0487885
6.6496157
6.3644438
5.6603983
5.5606322
4.830159
4.8675046
5.378356
4.6764676
4.0349902
3.9996037
3.4827509
4.427498
5.2630343
5.3285996
6.1288842
6.7973582
7.3416453
7.78364
8.145978
8.0436518
7.6690353
7.6214288
8.0093774
8.1113244
7.7377856
7.8363147
7.8817908
8.2457814
8.3175375
8.2844277
8.2121794
8.210567
8.1094366
8.0075757
7.6610776
7.4654953
6.8360807
6.5313801
6.7350481
6.9820403
7.7929
7.5957292
6.7749105
5.7690697
5.3697653
4.7088116
3.8133835
3.7979341
5.4452562
5.897933
4.5699308
4.4974058
5.3022705
6.3245822
7.1261333
7.8127826
7.3712108
8.0653075
8.252332
8.0095449
7.3553009
7.7439849
7.5326101
6.9015459
5.8672997
6.1219613
6.3443418
5.5103755
6.5199452
7.1127498
7.3625892
7.0988731
6.8059648
6.5232185
6.2477816
6.0385872
5.9178427
5.9238878
6.5872995
6.6833073
7.2393532
7.1745761
7.2761004
6.7019934
6.7930297
6.8914195
7.440341
7.3739811
7.4661612
7.9237165
8.0094831
8.0530588
8.4015156
8.4505289
8.5087759
8.2069336
8.3023302
8.3753017
8.649471
8.6990839
8.4440901
8.3599957
8.6368163
8.583386
8.2851052
7.917284
8.0489555
8.1906766
7.8485664
8.04239
8.1186544
8.2888202
8.0112305
8.2123708
8.1470833
8.0787074
7.7934097
7.7149096
7.4300624
7.5167999
7.8583365
7.9357215
7.6027043
7.8694168
7.9429635
7.6875993
7.3153521
7.6335829
7.5512005
7.4671024
7.3816799
7.2934956
7.1996546
6.812474
6.909583
6.4945119
6.9402956
6.843724
7.2478518
6.9138762
7.3412096
7.4342681
7.0098292
6.6353778
7.1464039
7.0512021
6.5401831
5.9697225
6.4357029
6.5321797
6.0118465
5.9175009
6.3965463
5.9074582
6.3761609
6.2694657
5.7800243
5.2754932
5.8051756
5.6881159
5.4678304
5.2919015
4.0654463
4.2667769
4.3983326
3.3441072
4.455745
4.3208659
3.2259705
2.1822265
3.1953378
3.1476756
2.0215521
2.2328594
1.2870601
1.1229336
2.1469859
1.3265137
2.211244
3.2725292
3.3093069
2.3820083
2.2400863
1.3855517
2.388068
2.1887419
1.2267148
0.69793093
0.8118891
1.4189286
0.76752504
0.6555153
0.44760331
0.51152427
0.5188526
0.7776903
1.3001986
2.2492571
3.681934
5.2673833
6.4605132
7.4230931
7.6206122
7.7699712
7.5699584
6.7352199
6.9442359
6.6645607
5.3355922
5.844488
5.7148876
4.4399983
4.511406
3.6557678
3.9861778
4.9153842
5.8042493
6.4940604
7.1058854
7.5703774
7.9725531
8.0768527
8.1150408
8.0101505
7.6230982
7.7401592
7.6893093
7.2085574
7.2816153
7.1777547
6.6012467
6.7162365
6.6093921
6.7015305
6.7935284
7.4044951
7.8815262
8.2556265
8.2920661
8.2173368
7.8411022
7.9314207
8.0172324
8.3467262
8.2743464
8.1732
8.0704277
8.1599568
8.2625988
7.9443295
7.8286807
7.7089537
7.8306612
7.4602734
7.2990319
7.4080756
7.5680376
7.1198041
6.8967387
6.7700256
6.9988933
7.2269614
7.6325331
7.9583562
8.2531245
8.0024386
7.8028802
7.3648245
8.06698
8.255565
7.7502421
7.3449414
7.1122207
7.5372424
6.9127352
6.3102704
5.8679331
5.2968252
5.5103519
6.5100275
7.1265152
6.374081
6.1491684
6.8265385
7.4328471
7.9086479
8.328564
8.6477844
8.9176262
9.0829865
8.6348174
8.6425267
9.1800582
9.2111591
9.0779394
8.8463287
9.0762182
9.0359083
8.8146732
8.9116745
8.9055191
8.6201755
8.985771
9.0099558
9.1015732
9.040328
8.7993858
8.9371323
8.8110229
8.578344
8.7732678
8.7341873
8.5046673
8.1228621
8.415425
8.2540206
8.0102176
8.5423199
8.8390512
8.0152074
7.0806234
7.9027298
8.0981597
7.6595287
7.0881721
7.6624045
7.4370955
7.9137812
8.2556735
8.4162943
8.7351604
8.5802244
8.3329686
8.507364
8.1259658
8.2736733
8.5966906
8.9901419
8.8741837
8.7697528
8.9281118
9.1481686
9.2083211
9.2344605
9.1504934
9.1838725
9.0544922
9.1324752
9.0321754
9.1118133
9.2758232
9.2999353
9.3022693
9.1973478
9.2815671
9.2066903
9.2396012
9.1682663
9.0156972
8.9466802
8.867472
8.7937119
8.7113252
8.64185
8.5722631
8.5258008
8.4953287
8.4931237
8.5188991
8.5626755
8.6209317
8.6845217
8.420813
8.3462321
8.2526806
8.333891
8.2684344
8.5806665
8.556513
8.2340996
8.1454361
8.1821911
7.7579455
7.8661645
8.0047424
8.0958774
7.9663614
7.4933545
7.6897073
7.5808288
7.3725711
7.2024281
7.3313142
7.8646708
7.8105893
7.7004605
7.1094957
7.2421391
6.4574097
6.6108615
6.8781338
7.180287
7.0530394
6.7373811
5.9294169
6.4073319
6.5493488
6.0818823
5.6241568
5.4781357
6.4630572
6.336552
6.1815052
5.1113697
5.3684337
5.288642
5.2307032
5.0012129
4.9729198
5.9216349
5.936413
5.8665681
6.0227378
5.9514723
5.1340762
5.195961
4.9675452
4.9933349
5.0258962
6.0105185
6.186182
6.9073129
7.479062
7.3829913
6.8121478
6.9973577
7.5101726
7.928691
8.0422941
8.3598675
8.4306507
8.1279463
7.7633752
7.6055737
7.0947809
7.3206702
7.2229092
7.6699654
7.8441433
8.1686505
8.4460754
8.3512066
8.4599051
8.3629829
8.101968
8.2086022
8.0735954
7.7443456
7.9222193
7.815249
7.4723086
7.5922936
7.3577675
7.461284
7.5565051
7.9335678
8.2502849
8.5126842
8.6130741
8.5488558
8.2994802
8.3767783
8.4997588
8.6998578
8.6412207
8.5553825
8.4649864
8.5746979
8.6621554
8.4692146
8.341329
8.2350267
8.373158
8.1563346
7.9871393
8.0942602
8.2552252
8.0154738
7.8128716
7.6886064
7.9046136
7.6329922
7.3723538
7.09919
6.7915968
6.4893543
6.1882197
6.2806264
6.5880701
5.9767148
5.5586612
5.458727
5.8747995
5.2398255
4.7168729
4.2793292
4.2556471
3.9296338
2.8275423
2.9169552
3.3264227
3.2738613
3.2097301
4.2517587
5.2427079
6.1026934
6.3721913
6.4648338
6.7868384
6.6887535
6.0669454
5.6303408
5.7073395
5.2969926
4.2552861
3.8458403
3.8154179
4.1657695
4.7341004
5.3544766
4.6036054
4.5599621
3.8243582
4.7035803
4.1812432
3.8618527
2.6831786
3.1348064
3.0488777
3.8117096
3.8061873
4.7783942
4.8437595
5.5297617
4.7312872
5.5046559
5.6196888
6.2581688
6.762846
7.1805918
6.7535897
7.1734078
6.7706244
7.1871934
7.0948901
7.0027087
6.5911673
7.0336792
7.1269217
6.689585
6.7905749
7.220882
6.8346723
7.2963717
7.6989721
7.6111468
7.1991071
7.1038238
6.7326763
6.8353996
7.3366816
7.4356476
7.5365291
7.7863178
7.394865
7.0581214
6.9440732
6.3766208
6.2616255
6.7296172
6.6291022
6.1088413
6.2116874
5.6360632
5.5343548
6.1564234
6.0602925
5.4442466
5.3619853
4.7270608
5.4507282
6.136905
6.747793
6.8421142
6.2255816
5.8064218
6.5435373
6.4541333
5.7313248
4.9080397
4.9555709
5.5262721
4.783087
4.0475973
4.0380089
3.3772563
4.4114424
5.3779066
6.2088376
6.2902999
5.4331331
5.1947525
6.1358394
6.8823993
6.9763039
7.0779865
7.2488842
7.4562403
7.8809207
7.964927
7.5504897
7.3480958
7.8266384
7.7375153
7.6236707
7.716167
8.1333353
8.4625296
8.4325051
8.3702358
8.3687072
8.7313377
9.1005813
9.1014578
9.1550579
8.8388117
8.539745
8.5966355
8.2948836
8.2154854
8.1758753
8.5118388
8.5703863
8.2576392
7.8501362
7.9087292
8.0085323
8.1322015
7.7459429
7.9358042
8.0220076
8.1926973
8.3522431
8.4999729
8.6379948
8.7689674
8.9727805
9.1674498
9.2119214
9.0278004
8.7522338
8.1040312
8.02865
7.5167281
8.0268315
8.6287177
8.4030752
8.507484
9.02801
8.964471
9.1583279
9.2116304
9.3147505
9.1896737
9.1272856
9.2902437
9.2963559
9.2732942
9.2754975
9.206912
9.3288613
9.3181887
9.2331669
9.249082
9.2864952
9.2625097
9.2584867
9.292986
9.326091
9.3170941
9.1649376
8.7028298
8.5851625
9.0906506
9.0514771
8.8929238
8.814037
8.985697
9.0995258
9.2298853
9.1598353
9.18768
9.247859
9.227222
9.2703318
9.198016
9.1877512
9.1348625
9.1471453
9.1113479
8.9433625
9.0260277
9.0680222
9.0494076
9.1487166
9.1370679
8.9652562
9.0248012
9.0939695
9.1517246
9.1934618
9.2668154
9.2885208
9.2016458
9.2464015
9.2192972
9.2011255
9.1580684
9.1580848
8.9640577
9.1265653
9.1888651
9.3141867
9.2959815
9.3178643
9.3281509
9.2059451
9.2749509
9.2729753
9.2327708
9.2489232
9.3256869
9.2898465
9.2583088
9.2926631
9.2464323
9.2622114
9.2860621
9.2078793
9.1849623
9.1643156
9.1335287
9.1491387
9.0948117
9.0755978
8.9450783
9.0315312
9.0507908
8.9768944
9.0091525
9.1283014
9.1744713
9.1858053
9.1417851
9.0348143
9.0976827
9.0826102
8.9696779
8.9998
8.9717861
8.9104121
8.9383941
8.8370664
8.7985581
8.6320189
8.7655476
8.7950654
8.6760918
8.7181848
8.8733444
8.9050803
8.9931572
8.8596305
8.8351959
8.6947128
8.8045318
9.00019
9.1852148
9.1648336
9.1348478
9.1498409
9.0520806
9.0335326
8.9484001
9.0778427
9.096062
8.9790714
9.010446
9.0834204
9.1748157
9.1859433
9.0980549
9.0355689
9.1421199
9.129008
9.0778384
9.1675738
9.3043003
9.2219638
9.3057775
9.1265189
9.0458685
9.2724181
9.2764575
9.0993691
9.136648
9.1945376
9.1247384
9.1686602
9.2065399
9.2079838
9.050579
9.0462223
9.048238
9.1462321
9.1296887
9.2081827
9.1734148
9.0767039
9.059921
9.1246101
9.0213027
8.9937298
8.9708327
8.9402458
8.9130944
8.8031735
8.8402521
8.6804784
8.7975329
8.8370147
8.8606587
8.7564772
8.906285
8.8753608
8.7211536
8.5438863
8.6964616
8.6542032
8.7464543
8.6134285
8.6516313
8.4924581
8.4416726
8.2237769
8.4229292
8.4636226
8.2814199
8.336187
8.5403312
8.5820343
8.7545429
8.7874855
8.9334212
9.0594562
9.1683363
9.2063705
9.2081661
9.1732353
9.0763567
9.1294812
9.1243644
9.0207961
9.0504008
9.0463107
9.2010592
9.2191126
9.2138788
9.1871907
9.1910564
9.092009
9.1461047
9.1442462
9.0999399
8.9860814
9.0535376
9.048143
9.0332278
8.9553291
8.8128824
8.9071256
8.8949341
8.760942
8.8583874
8.8773808
8.8028818
8.9292958
8.9336041
8.8494759
8.8345223
8.9736009
8.8979405
9.0360862
9.1536696
9.2014146
9.2879466
9.1637893
8.7014129
8.5815112
8.4017456
8.8918755
9.0493619
9.2293299
9.0989109
9.1589916
9.1967158
9.2696752
9.2270347
9.2477111
9.1866832
9.1866057
9.1140139
9.1932525
9.1479958
9.1927692
9.2001429
9.2175295
9.1953422
9.1804285
9.1024836
9.1392266
9.1532979
9.1054399
8.993976
9.0626761
9.0613076
9.0163956
9.049959
9.1366634
9.1141201
9.1670164
9.1521535
9.1780815
9.0972021
9.0832529
8.9806509
9.0338594
8.9223586
8.9405848
8.9394403
9.05469
8.9946739
8.8624484
8.8598221
8.94886
8.8252104
8.8903607
9.0612512
9.1929993
9.1483939
9.0170734
9.0495587
9.1360718
9.1923163
9.1999781
9.2175839
9.213929
9.1441732
9.0998696
9.1871801
9.1910863
9.092056
8.9737625
8.955782
9.0334422
8.9075812
8.8955755
8.7886261
8.9341781
8.8491699
8.9959098
8.9677709
9.0962098
9.0412868
9.0199903
8.9779468
9.0418833
9.0177335
8.8641812
8.9011705
8.820499
8.7775522
8.9500894
8.8878463
8.9213845
8.738094
8.6886564
8.5989641
8.8193402
8.8572513
8.6552147
8.709552
8.7856626
8.8619902
8.9369788
8.7797258
8.7385016
8.6944143
8.5808904
8.6324328
8.4122609
8.5508441
8.5981507
8.6407117
8.8165451
8.7237878
8.8977498
8.8269764
8.9927986
8.9665387
8.9087198
8.9386303
8.7568651
8.5316174
8.6281059
8.577396
8.6803725
8.468096
8.5186543
8.3902802
8.3298974
8.263456
8.521246
8.4613523
8.3377234
8.4070299
8.1054357
8.1845499
8.4721532
8.3691407
8.6372582
8.8603914
9.0388363
9.2514658
9.2234558
9.1688242
9.2757701
9.2980028
9.2702234
9.15068
9.104116
9.2511227
9.2363242
9.2601969
9.2321719
9.2186206
9.24111
8.9739017
8.9295115
9.0015584
9.0532236
9.0846764
8.9395402
8.9803225
9.029319
9.0752406
9.0870655
9.1342977
9.0175781
8.9564328
8.9304843
8.7619006
8.7940936
8.876157
8.7094648
8.8135624
8.8348139
8.9293414
8.9334259
9.0533512
8.9858182
8.8493243
8.6903598
8.8112947
8.8028999
8.7802793
8.7616414
8.7265953
8.5499055
8.5183782
8.4654702
8.4254161
8.6167045
8.4485239
8.4974942
8.2864623
8.230398
7.982095
8.2323495
8.285488
8.0433213
7.9770747
7.6938307
7.7697397
8.046985
8.1078687
8.3401137
8.5171029
8.5491021
8.7253916
8.3834564
8.1597213
8.3828921
8.1614674
8.3856299
8.5842385
8.6205792
8.6493839
8.4600508
8.6124233
8.5933247
8.4270816
8.2085926
8.425749
8.5929135
8.6122595
8.7798352
8.6486284
8.6191092
8.4257615
8.4592836
8.4874813
8.6732829
8.6904681
8.8114832
8.650068
8.6427113
8.4844479
8.6427772
8.6499157
8.5067142
8.48766
8.6734101
8.5433424
8.7348932
8.898097
9.0361464
9.1537032
9.1537997
9.0478807
8.9933206
9.1120949
9.11099
8.978576
8.8203594
8.840149
8.9142276
8.7539037
8.6548201
8.6313204
8.6007959
8.5630798
8.6780194
8.47866
8.4359134
8.3872606
8.3331262
8.2746354
8.0138084
8.0806788
7.8505688
8.1534611
8.0839939
7.7705998
7.4088593
7.7137048
7.790126
7.4569155
7.3694124
7.2789229
6.8936567
6.4368968
6.9430376
6.5003169
5.8772629
5.7503981
6.3212322
5.7699865
6.31142
6.2047165
6.6701254
6.5718975
6.4748737
5.9785437
5.8815029
5.3713198
5.4649076
6.004529
5.4621823
5.3718086
5.279423
5.192311
4.6261614
5.1465597
4.5965404
4.6882889
5.2214652
4.5817998
4.0256157
3.9357641
3.4232828
4.0661099
4.129409
4.7201766
4.0932009
4.6781798
4.5978169
4.0010542
3.4575081
3.520242
2.9300572
3.4865703
3.5414913
4.0856613
4.647765
5.3118409
5.4006318
4.7159273
4.1491496
4.8560991
4.7717777
4.2039011
4.8047638
4.8897742
4.2206478
4.8213174
4.7486268
4.1552366
3.5755506
3.6348598
4.2803231
3.6005085
3.0192968
2.9721352
2.3112123
2.7958211
3.2970795
3.8797372
3.855303
3.0743513
2.4661173
3.2766748
3.2586533
2.47672
1.7905703
1.6830879
2.3308877
1.8156641
1.1402165
1.2910923
0.9092585
1.368891
2.0215654
2.7659082
2.7725011
2.0072874
1.6195865
2.292297
2.2735022
2.8632352
2.3045023
2.8319353
3.3578499
3.9768767
3.9927753
3.380118
2.5998654
3.2485151
3.2720862
2.6081929
2.118317
2.1015566
2.8385607
2.3238251
1.6798957
1.6776758
1.1433376
1.4827645
1.9444156
2.6488477
2.5270812
3.4366267
4.4102043
4.1170166
5.1246543
5.9896073
6.0613709
5.1566254
4.0841479
4.0557281
4.4190926
3.3204164
2.7939092
2.9138361
3.0293536
3.1085064
4.1624655
5.0664713
5.058713
5.1153773
5.9827129
6.6968501
7.2723803
7.7350645
7.6188274
7.6615964
8.0381038
8.1403592
7.7760675
7.8742085
7.8336084
7.9210724
8.2826293
8.3121519
8.2401941
8.2905984
8.6691271
9.0341281
8.9978246
8.9446347
9.003546
9.1614472
9.2180687
9.2033051
9.1544375
8.8374392
8.888228
9.1810604
9.1311477
8.7890954
8.8856558
9.1758445
9.0850066
8.7768825
8.9013977
9.1523292
9.0792248
9.1432754
9.1759103
8.6397933
9.2071154
9.2712363
9.2293163
9.2636493
9.2175721
8.9720683
9.0679339
8.9956667
9.1061142
9.0262037
9.2036023
9.2291401
9.1443349
9.1779169
9.0951655
9.0350489
9.0785639
8.9007699
8.6135407
8.9125457
8.6419194
8.7933511
8.9291912
9.0021796
8.9789587
8.8027394
8.5680059
8.3206292
7.9982872
7.8953886
8.1093874
8.4962935
8.7244393
8.7612984
8.2377919
8.4002462
8.0744491
7.6364232
7.4100352
7.047889
6.7856322
7.0475081
7.6224142
7.3945502
7.8771483
8.2312228
7.9837373
8.5276086
8.8297408
8.8087941
8.9052446
9.0304535
9.0715864
8.8422206
9.0736752
9.1925481
9.2766829
9.2976048
9.2952516
9.1628447
9.2345076
9.2009843
9.1260285
9.0468332
8.9219927
8.6665623
8.5691245
8.4624051
8.3642439
8.2599443
8.1729209
8.0912848
8.1916783
7.8539728
7.7371129
7.8480811
7.9593832
8.2733019
8.3687959
8.4375146
8.3604114
8.036683
7.9610676
7.521963
7.4623089
7.3701311
6.7875977
6.8766823
6.9674654
6.8764793
7.4297274
7.3311589
7.229428
7.170975
6.5825862
6.6698448
6.7830855
6.9419209
7.4423277
7.3360643
6.8185272
7.0273831
7.4829324
7.5881954
7.1454498
7.245365
7.0389821
7.5413102
7.9512196
8.0549488
8.1380866
7.7774677
7.6330107
7.1320215
7.339084
7.4318073
7.2265229
7.0617155
6.9702553
7.5539569
7.5578795
7.6518657
8.0914529
8.0891358
8.4310447
8.457983
8.3964068
8.0458534
8.006907
8.1266526
8.2093089
8.1736012
8.5104586
8.5691872
8.2555631
8.2892314
8.5929279
8.5354846
8.5776021
8.5020423
8.4431605
8.1193043
8.1971269
8.2911294
8.5722083
8.5157873
8.2172328