/*--------------------------------*- C++ -*----------------------------------*\
  =========                 |
  \\      /  F ield         | OpenFOAM: The Open Source CFD Toolbox
   \\    /   O peration     | Website:  https://openfoam.org
    \\  /    A nd           | Version:  7
     \\/     M anipulation  |
\*---------------------------------------------------------------------------*/
FoamFile
{
    version     2.0;
    format      ascii;
    class       volScalarField;
    location    "50";
    object      T;
}
// * * * * * * * * * * * * * * * * * * * * * * * * * * * * * * * * * * * * * //

dimensions      [0 0 0 1 0 0 0];

internalField   nonuniform List<scalar> 
25278
(
299.99723
300.00234
299.99958
299.99958
300.01202
300.00245
299.99721
299.99723
299.99724
299.9988
299.99842
299.99819
300.00002
300.00453
300.10301
299.99958
300.00231
300.0876
300.12727
300.07585
300.0314
300.02161
300.01223
300.00316
300.01273
300.00323
300.01232
300.03104
300.04714
300.03837
300.05305
300.06399
300.10992
300.07936
300.0679
300.07798
300.07083
300.08207
300.09002
300.11983
300.10262
300.09365
300.10807
300.0977
300.07325
300.0396
300.0072
300.0112
300.04879
300.06432
300.0735
300.08586
300.15803
300.13702
300.0995
300.09174
300.10276
300.11102
300.15271
300.13545
300.12387
300.13953
300.15149
300.11
300.1181
300.12343
300.11492
300.15829
300.17154
300.16427
300.22132
300.20477
300.17891
300.15532
300.12855
300.10509
300.06821
300.03872
300.02196
300.03501
300.04698
300.10365
300.08816
300.1289
300.04924
300.06256
300.14306
300.22695
300.19068
300.14577
300.14929
300.20108
300.18992
300.25227
300.271
300.20197
300.19731
300.14053
300.13519
300.1963
300.19662
300.28145
300.28809
300.19702
300.2533
300.24538
300.2447
300.34734
300.31458
300.35746
300.25467
300.27959
300.40224
300.44234
300.37429
300.39926
300.48286
300.29694
300.2832
300.28423
300.12956
300.04938
300.01208
300.19536
300.25847
300.31981
300.35931
300.25575
300.14393
300.06278
300.04754
300.03542
300.08957
300.10536
300.19451
300.23008
300.24813
300.28069
300.40424
300.35333
300.38083
300.44441
300.48491
300.29793
300.25648
300.24874
300.20132
300.20608
300.27795
300.20713
300.10606
300.14937
300.15304
300.14412
300.09055
300.13866
300.20089
300.29575
300.40609
300.60994
300.75987
300.75945
300.59644
300.39795
300.25157
300.24375
300.28088
300.29422
300.48119
300.44203
300.37347
300.52896
300.64845
300.76697
300.81254
300.66973
300.64196
300.64245
300.6457
300.77014
300.7823
300.65829
300.53981
300.38501
300.28887
300.20279
300.20269
300.26126
300.41161
300.49921
300.45556
300.29083
300.13241
300.2524
300.30604
300.29617
300.54923
300.93354
300.99207
301.0494
300.90799
300.52524
300.28345
300.23942
300.17774
300.11774
300.07964
300.04747
300.06467
300.05374
300.07861
300.11076
300.10326
300.0943
300.07148
300.083
300.09094
300.12088
300.10908
300.0987
300.08486
300.05134
300.02748
300.00745
300.0135
300.02971
300.04303
300.02289
300.04027
300.06333
300.05333
300.07323
300.08685
300.06373
300.07416
300.08355
300.04984
300.01179
300.03209
300.07688
300.06538
300.10066
300.13853
300.13685
300.12529
300.09295
300.10428
300.11248
300.1546
300.14141
300.1537
300.11176
300.07491
300.08723
300.16011
300.11974
300.16639
300.17382
300.12524
300.11685
300.16069
300.14839
300.14174
300.12977
300.11447
300.10105
300.07204
300.08109
300.09409
300.10109
300.05772
300.03283
300.02856
300.05869
300.05198
300.0373
300.02993
300.04312
300.06017
300.07204
300.05379
300.06209
300.04196
300.04606
300.06566
300.0937
300.08375
300.11164
300.10338
300.09335
300.07935
300.05048
300.02944
300.01323
300.02718
300.05104
300.06272
300.05267
300.06277
300.08583
300.07256
300.08422
300.10959
300.08324
300.09539
300.10727
300.11371
300.11937
300.14471
300.12007
300.16308
300.17229
300.21361
300.19897
300.26907
300.20747
300.16354
300.12068
300.12914
300.17852
300.1727
300.21473
300.15646
300.14583
300.20012
300.26996
300.27721
300.21408
300.28829
300.27634
300.36847
300.35823
300.30124
300.26451
300.22425
300.19485
300.16348
300.14053
300.13413
300.1467
300.12436
300.13029
300.15437
300.18125
300.17413
300.15677
300.15103
300.13309
300.14846
300.12706
300.11892
300.1002
300.11058
300.1179
300.13935
300.13092
300.1549
300.13879
300.16442
300.1768
300.18683
300.20731
300.21764
300.25441
300.24497
300.21632
300.19609
300.15146
300.11018
300.09602
300.13353
300.14935
300.12799
300.1082
300.11466
300.12031
300.14146
300.1351
300.14796
300.12555
300.1315
300.15563
300.18257
300.1644
300.15771
300.18769
300.1957
300.21896
300.20863
300.17544
300.1667
300.14061
300.11911
300.11182
300.10119
300.1199
300.13218
300.15618
300.13973
300.16525
300.17764
300.19767
300.18406
300.16683
300.15071
300.10925
300.07637
300.05685
300.07265
300.08267
300.09821
300.11053
300.12171
300.10889
300.09222
300.08116
300.06716
300.05984
300.07048
300.08557
300.09441
300.07859
300.08885
300.07945
300.09753
300.11316
300.12813
300.14289
300.12672
300.14605
300.13137
300.11216
300.0891
300.09834
300.12292
300.10847
300.11733
300.10217
300.08723
300.09943
300.1184
300.13281
300.14457
300.12094
300.12884
300.13578
300.14161
300.17202
300.18061
300.24154
300.25326
300.24346
300.28576
300.19787
300.20719
300.29679
300.39786
300.33384
300.42605
300.45336
300.46008
300.33862
300.4047
300.56044
300.55474
300.61747
300.43767
300.32394
300.22418
300.28656
300.23524
300.22889
300.21785
300.31803
300.33552
300.3414
300.46226
300.52937
300.65526
300.66954
300.63551
300.45475
300.48079
300.42832
300.41692
300.39747
300.37539
300.34609
300.31749
300.28448
300.2557
300.22496
300.21704
300.25494
300.26496
300.30336
300.28926
300.24624
300.23256
300.20489
300.17293
300.20421
300.1891
300.2138
300.18283
300.1964
300.16543
300.18219
300.15235
300.12737
300.09957
300.07078
300.08237
300.09257
300.07944
300.11236
300.1279
300.11305
300.14018
300.17024
300.19536
300.28223
300.24127
300.25128
300.29355
300.31984
300.31329
300.21475
300.22555
300.23212
300.33676
300.33036
300.47237
300.44734
300.39988
300.33613
300.33174
300.42363
300.39387
300.55017
300.4518
300.45799
300.55453
300.62385
300.61015
300.43226
300.45609
300.64525
300.65423
300.59179
300.50902
300.42041
300.35304
300.28668
300.23821
300.19451
300.14596
300.10387
300.05625
300.0313
300.02753
300.02225
300.04241
300.02932
300.03637
300.05103
300.07102
300.05953
300.04249
300.05277
300.0606
300.0407
300.05744
300.064
300.04438
300.06605
300.0917
300.08224
300.11015
300.10216
300.09241
300.07876
300.05628
300.07175
300.08173
300.09099
300.10766
300.09728
300.1096
300.12047
300.14166
300.12727
300.10885
300.076
300.09674
300.08471
300.06961
300.05894
300.06599
300.07999
300.09324
300.07744
300.08778
300.07868
300.08846
300.11152
300.13063
300.11232
300.12555
300.14498
300.16568
300.14997
300.1709
300.13975
300.09564
300.12393
300.14748
300.1651
300.19157
300.21942
300.19721
300.22044
300.23952
300.2545
300.2882
300.30229
300.3491
300.33535
300.29109
300.33603
300.34985
300.40714
300.38688
300.35917
300.31354
300.2709
300.23139
300.25791
300.21753
300.22984
300.19182
300.16028
300.13432
300.14617
300.1527
300.18343
300.16774
300.19847
300.21819
300.20996
300.17454
300.16568
300.13857
300.12958
300.11943
300.14296
300.15496
300.16616
300.13782
300.14783
300.15619
300.16294
300.17418
300.1669
300.20118
300.18833
300.19721
300.21134
300.25332
300.2356
300.22759
300.24378
300.29532
300.27511
300.25293
300.26562
300.23994
300.28252
300.27378
300.3027
300.31457
300.37858
300.33794
300.324
300.35992
300.33493
300.28397
300.23861
300.19904
300.18509
300.17019
300.20168
300.21989
300.23662
300.19896
300.21509
300.17842
300.19014
300.15775
300.14642
300.17629
300.21121
300.22966
300.27628
300.25851
300.3082
300.33035
300.34217
300.28793
300.31069
300.32816
300.26698
300.22231
300.18222
300.13951
300.09933
300.08491
300.08858
300.12723
300.12201
300.0983
300.06787
300.04623
300.04709
300.07045
300.10164
300.0703
300.06911
300.10202
300.09972
300.09578
300.09174
300.08578
300.09794
300.10529
300.11919
300.14155
300.13122
300.11686
300.12523
300.10693
300.10067
300.08295
300.07041
300.07436
300.08703
300.08969
300.07681
300.07866
300.09123
300.11562
300.11186
300.13241
300.11084
300.1262
300.13351
300.11623
300.13841
300.15908
300.1509
300.17866
300.16748
300.15501
300.13658
300.1463
300.16844
300.15761
300.1816
300.1963
300.20922
300.1772
300.15449
300.16098
300.18818
300.21986
300.25113
300.26259
300.22122
300.18462
300.15259
300.16493
300.17482
300.18214
300.19001
300.23209
300.22087
300.21212
300.19999
300.20778
300.17161
300.15818
300.19108
300.19534
300.16142
300.17551
300.18653
300.18915
300.19736
300.24181
300.23003
300.22689
300.21305
300.21579
300.17788
300.16332
300.19754
300.23613
300.23366
300.22877
300.25124
300.24183
300.25757
300.26841
300.27913
300.3436
300.32551
300.31232
300.2909
300.30194
300.27098
300.27613
300.30914
300.2576
300.27587
300.27973
300.29112
300.35867
300.339
300.33441
300.40101
300.39102
300.37559
300.35513
300.3702
300.44874
300.41357
300.3938
300.42394
300.38907
300.32953
300.29523
300.27859
300.25884
300.23693
300.27553
300.24808
300.28426
300.24999
300.22084
300.18977
300.21494
300.24896
300.27189
300.23995
300.27345
300.31418
300.28482
300.32178
300.27552
300.2477
300.22136
300.19755
300.17149
300.148
300.1681
300.18626
300.16597
300.19258
300.2202
300.24814
300.20566
300.18623
300.1678
300.18567
300.14931
300.13605
300.12195
300.10737
300.11588
300.09365
300.09748
300.12265
300.13771
300.13098
300.10288
300.09744
300.10554
300.09655
300.10474
300.13853
300.15026
300.13873
300.12439
300.09698
300.10497
300.11197
300.10624
300.13677
300.14978
300.16033
300.11443
300.11106
300.11428
300.11159
300.11322
300.10978
300.14507
300.17921
300.21041
300.22734
300.19076
300.21198
300.2005
300.24081
300.25963
300.30132
300.32407
300.36407
300.42455
300.39031
300.35259
300.30337
300.37937
300.39252
300.44194
300.42304
300.49204
300.43952
300.46026
300.52086
300.57297
300.4839
300.46407
300.49991
300.52621
300.62454
300.58367
300.54115
300.48901
300.44914
300.40495
300.35802
300.31632
300.34594
300.39133
300.4195
300.37157
300.39173
300.34278
300.28646
300.25314
300.24177
300.19949
300.20522
300.18373
300.14463
300.13118
300.12771
300.09953
300.10003
300.10476
300.10622
300.10574
300.11061
300.15112
300.16133
300.15728
300.16577
300.16018
300.20535
300.2228
300.16722
300.11204
300.10336
300.1118
300.10388
300.11068
300.1041
300.10844
300.15416
300.14225
300.15449
300.10372
300.09427
300.15827
300.16165
300.21977
300.27516
300.30734
300.2916
300.27135
300.22008
300.2304
300.24367
300.23599
300.30062
300.32132
300.33639
300.24518
300.23594
300.2363
300.22367
300.22368
300.208
300.1879
300.16568
300.14292
300.11987
300.13853
300.14307
300.12291
300.14615
300.17051
300.16561
300.19561
300.20098
300.16876
300.19022
300.23312
300.22778
300.26078
300.30785
300.34648
300.35881
300.31643
300.3636
300.3558
300.40824
300.44805
300.47477
300.39116
300.40947
300.49697
300.46539
300.42103
300.42737
300.36632
300.32105
300.32333
300.27874
300.31285
300.26087
300.26097
300.21584
300.17789
300.12715
300.08851
300.05616
300.01111
300.03135
300.0875
300.12746
300.19716
300.14038
300.19705
300.24482
300.28167
300.295
300.25258
300.39996
300.48343
300.44416
300.37565
300.28227
300.28876
300.19673
300.13503
300.08772
300.19683
300.25264
300.39937
300.59914
300.77297
300.65352
300.5322
300.64472
300.68038
300.82091
300.75949
300.48053
300.44168
300.37508
300.24492
300.12798
300.28167
300.24982
300.38067
300.53444
300.64105
300.65633
300.77809
300.75404
300.60091
300.77625
300.6562
300.45329
300.49563
300.40562
300.25803
300.13167
300.28977
300.30452
300.29437
300.54435
300.92225
300.99075
301.05509
300.9148
300.52695
300.28394
300.15814
300.08586
300.07347
300.06416
300.07582
300.13719
300.11109
300.11817
300.12348
300.11493
300.10999
300.15163
300.15838
300.17165
300.16456
300.153
300.13962
300.10268
300.09151
300.09947
300.13556
300.12375
300.11267
300.082
300.0485
300.02716
300.03116
300.07033
300.04697
300.04574
300.06751
300.08465
300.09923
300.10385
300.14598
300.1395
300.12173
300.09774
300.10145
300.07003
300.06839
300.06503
300.04373
300.06342
300.079
300.09236
300.12774
300.11184
300.09885
300.07018
300.05673
300.03994
300.05943
300.08121
300.09085
300.13259
300.1378
300.14258
300.1453
300.14699
300.14707
300.14558
300.12457
300.12546
300.14895
300.14808
300.17366
300.17521
300.20587
300.20428
300.17043
300.17117
300.19153
300.19109
300.23606
300.23749
300.26774
300.26692
300.26533
300.20856
300.22138
300.29561
300.293
300.32168
300.3179
300.34487
300.44079
300.52184
300.45354
300.47408
300.52757
300.55606
300.58022
300.54519
300.6294
300.6142
300.66054
300.68559
300.69157
300.62621
300.55245
300.47545
300.4801
300.4061
300.42676
300.51581
300.59714
300.55424
300.61673
300.68823
300.7359
300.76523
300.77784
300.75712
300.71835
300.65641
300.59528
300.52304
300.46127
300.39416
300.33982
300.3259
300.27574
300.23174
300.19357
300.16188
300.16932
300.18545
300.15447
300.14796
300.17654
300.1677
300.15397
300.18393
300.1719
300.20344
300.21938
300.24114
300.20131
300.21227
300.2205
300.20022
300.24184
300.26829
300.25555
300.27853
300.23049
300.19076
300.15829
300.16493
300.1996
300.21419
300.17653
300.16934
300.20406
300.19302
300.18085
300.14992
300.14037
300.13143
300.15697
300.18732
300.22232
300.23979
300.20174
300.1686
300.13998
300.11432
300.12439
300.08689
300.09084
300.10581
300.10584
300.0578
300.01187
300.00247
299.99958
299.99722
299.9972
300.00461
300.01254
300.02221
300.03217
300.08736
300.07501
300.12531
300.16041
300.17394
300.16074
300.11692
300.11196
300.12002
300.16678
300.15391
300.1419
300.10468
300.06577
300.07738
300.13957
300.11299
300.15533
300.13797
300.10145
300.09361
300.12616
300.11521
300.13011
300.14184
300.14839
300.12993
300.12991
300.10457
300.10081
300.0699
300.04825
300.07171
300.06807
300.09781
300.09349
300.10711
300.121
300.14352
300.12712
300.10875
300.08878
300.0844
300.07184
300.0761
300.07882
300.09177
300.114
300.13465
300.11293
300.12831
300.15324
300.16185
300.13597
300.14895
300.16018
300.16763
300.17753
300.18479
300.22548
300.21537
300.22443
300.1851
300.19276
300.23551
300.28343
300.2709
300.25677
300.23843
300.29135
300.31497
300.29964
300.24729
300.23314
300.21797
300.26187
300.28054
300.25514
300.21463
300.17917
300.18791
300.15542
300.16129
300.17456
300.21141
300.2033
300.24592
300.26166
300.31754
300.33327
300.3493
300.33149
300.27297
300.25587
300.23329
300.22524
300.26757
300.2961
300.30797
300.27676
300.28248
300.23855
300.19925
300.19476
300.17409
300.16881
300.14128
300.12261
300.11869
300.14104
300.11814
300.10208
300.08101
300.09364
300.10241
300.10156
300.0992
300.09505
300.10411
300.1323
300.15908
300.13815
300.15665
300.18325
300.19852
300.16958
300.14825
300.17037
300.13942
300.12448
300.1299
300.15686
300.18127
300.21208
300.17961
300.18666
300.16382
300.19135
300.22345
300.25712
300.24482
300.22958
300.21198
300.23869
300.25983
300.30514
300.27717
300.3039
300.26141
300.28675
300.30563
300.36297
300.38172
300.44508
300.42611
300.38103
300.44059
300.4948
300.52367
300.5779
300.48874
300.418
300.39834
300.33436
300.36044
300.43032
300.45502
300.53352
300.50749
300.46906
300.54628
300.5922
300.63285
300.67306
300.56608
300.48284
300.45662
300.38235
300.39905
300.47617
300.50696
300.59354
300.55991
300.53841
300.62773
300.64937
300.70384
300.71482
300.60725
300.52026
300.48777
300.40984
300.34075
300.28062
300.23057
300.18959
300.19735
300.24174
300.24522
300.20015
300.19222
300.23368
300.21958
300.21686
300.1786
300.16474
300.16673
300.181
300.18093
300.19218
300.20011
300.22889
300.23542
300.28725
300.34154
300.33537
300.31799
300.218
300.22473
300.32471
300.4388
300.46251
300.53102
300.65514
300.66793
300.48031
300.45435
300.63402
300.61928
300.55961
300.40063
300.29844
300.20824
300.24394
300.18224
300.17319
300.19845
300.2865
300.24524
300.25598
300.3382
300.43239
300.46127
300.46576
300.56254
300.40589
300.34171
300.31896
300.34668
300.3751
300.39658
300.41576
300.42734
300.43412
300.43451
300.3644
300.35905
300.29115
300.29543
300.2844
300.34524
300.31926
300.31568
300.26249
300.26571
300.24106
300.20151
300.17923
300.17755
300.14887
300.14613
300.12601
300.14954
300.14597
300.12103
300.1047
300.08224
300.09455
300.09485
300.08305
300.10701
300.12298
300.13748
300.13621
300.1338
300.14719
300.14436
300.10805
300.10727
300.1118
300.11072
300.14617
300.18051
300.20151
300.24215
300.26178
300.21349
300.19252
300.15256
300.1624
300.15799
300.11385
300.1114
300.10416
300.11201
300.16617
300.22069
300.27237
300.31765
300.35414
300.40593
300.35887
300.39341
300.34843
300.39318
300.33787
300.36836
300.3121
300.28215
300.32795
300.34815
300.3
300.33468
300.39523
300.46067
300.42932
300.37563
300.4234
300.49372
300.45168
300.51086
300.45834
300.5023
300.56432
300.63886
300.56617
300.59721
300.59853
300.56564
300.67995
300.70447
300.74011
300.95389
300.74548
300.7082
300.92179
301.06867
300.78927
300.83704
300.83586
300.82646
301.09432
300.99224
301.11037
301.45244
301.13292
300.85481
300.79756
300.90662
301.07565
301.11716
300.84196
300.87055
301.06976
301.48236
301.31279
301.2798
301.29804
301.3956
301.26212
300.77267
300.78206
301.3412
301.11965
300.83381
300.64798
300.45744
300.33728
300.23239
300.22574
300.21519
300.22194
300.32095
300.31436
300.33079
300.47326
300.44947
300.43428
300.6133
300.62748
300.65613
300.59879
300.51677
300.42729
300.35898
300.29133
300.24193
300.19743
300.18921
300.18664
300.19476
300.23861
300.22715
300.23016
300.27994
300.27633
300.28731
300.35402
300.33519
300.33935
300.31312
300.27888
300.23618
300.19752
300.1633
300.16127
300.17555
300.21316
300.19525
300.19081
300.15789
300.17158
300.18228
300.19034
300.18255
300.17488
300.21238
300.22123
300.23266
300.22289
300.26786
300.28001
300.26903
300.25809
300.31314
300.32653
300.34497
300.32954
300.31178
300.25408
300.21179
300.17446
300.19574
300.20543
300.24026
300.17928
300.17031
300.24157
300.28312
300.29465
300.25194
300.33266
300.39565
300.42548
300.55224
300.55594
300.4013
300.33646
300.45774
300.45257
300.36816
300.2765
300.21373
300.15537
300.11976
300.08987
300.05274
300.02145
300.00707
300.03918
300.02181
300.01293
300.01245
300.02673
300.03797
300.03071
300.0469
300.06383
300.10982
300.07768
300.06733
300.07034
300.08172
300.10774
300.09313
300.10231
300.12827
300.10431
300.11943
300.1444
300.19865
300.16232
300.17204
300.17787
300.11735
300.07904
300.17799
300.28846
300.21374
300.20645
300.26856
300.35702
300.26846
300.27648
300.21377
300.17206
300.16237
300.11959
300.1284
300.15554
300.14457
300.19869
300.19394
300.14981
300.08198
300.10868
300.11883
300.09712
300.07277
300.06208
300.05193
300.05028
300.06214
300.08351
300.07156
300.08493
300.0699
300.05027
300.03559
300.02863
300.02866
300.04162
300.05841
300.04138
300.05159
300.07837
300.08417
300.09013
300.09427
300.09834
300.10086
300.1031
300.10429
300.10513
300.10531
300.10486
300.10399
300.07998
300.07957
300.09178
300.11815
300.11969
300.09167
300.09122
300.08005
300.07986
300.09073
300.12066
300.12047
300.13416
300.13398
300.13314
300.09938
300.09802
300.09839
300.10194
300.14527
300.14464
300.14378
300.09527
300.09658
300.09534
300.134
300.14307
300.09275
300.07966
300.08457
300.09026
300.0974
300.15266
300.14943
300.14513
300.15254
300.08244
300.06906
300.05912
300.14069
300.14687
300.20762
300.20762
300.21744
300.21728
300.29421
300.36622
300.36732
300.43031
300.37004
300.37055
300.40669
300.40234
300.42185
300.51121
300.47757
300.48118
300.43131
300.36818
300.32371
300.32164
300.27632
300.23365
300.25786
300.3097
300.30248
300.25151
300.20786
300.1999
300.16481
300.15212
300.18412
300.22066
300.22855
300.27089
300.26201
300.29109
300.24186
300.22937
300.18987
300.15747
300.16687
300.156
300.16309
300.19745
300.18824
300.20133
300.24408
300.22758
300.23606
300.28854
300.27511
300.29581
300.27602
300.25
300.21032
300.17555
300.14578
300.13697
300.1474
300.17791
300.16519
300.1538
300.12861
300.13799
300.14585
300.15271
300.14003
300.13382
300.15975
300.17424
300.18349
300.16756
300.19833
300.21837
300.20964
300.19121
300.22902
300.2525
300.26579
300.2397
300.28221
300.31478
300.34294
300.3716
300.39296
300.41144
300.3926
300.37683
300.44966
300.46772
300.49982
300.47707
300.55904
300.58423
300.59525
300.55602
300.5561
300.62031
300.69172
300.69709
300.63212
300.54438
300.49074
300.42933
300.36736
300.3598
300.31661
300.30722
300.34691
300.40885
300.42272
300.36425
300.36764
300.40943
300.4058
300.40414
300.40654
300.4096
300.40445
300.45154
300.54307
300.54988
300.48562
300.48732
300.48653
300.52572
300.53877
300.43635
300.45204
300.34052
300.3211
300.22495
300.23192
300.2304
300.24059
300.13558
300.15331
300.16224
300.16656
300.16408
300.16893
300.16471
300.16904
300.23632
300.30121
300.32284
300.29348
300.23148
300.24435
300.16436
300.16714
300.16309
300.16303
300.15599
300.2018
300.22179
300.27818
300.29082
300.2263
300.20818
300.15675
300.1053
300.10985
300.10496
300.09513
300.16006
300.15457
300.23862
300.23749
300.31034
300.33901
300.246
300.24159
300.34915
300.32238
300.39793
300.44725
300.52984
300.55585
300.48472
300.41662
300.35316
300.31404
300.36341
300.37342
300.324
300.36688
300.43176
300.50023
300.42277
300.41367
300.46242
300.46816
300.56919
300.56578
300.50578
300.43998
300.37533
300.32972
300.37798
300.37873
300.33193
300.28509
300.24343
300.24193
300.23835
300.2322
300.19937
300.16904
300.19149
300.19439
300.17257
300.20526
300.20897
300.17457
300.1518
300.12795
300.12907
300.15055
300.15051
300.10469
300.07297
300.07287
300.04952
300.07347
300.10818
300.08346
300.09486
300.12409
300.1247
300.10899
300.08374
300.09492
300.09977
300.10028
300.10127
300.10217
300.10441
300.10694
300.06901
300.0735
300.07625
300.07676
300.0746
300.07028
300.04685
300.01705
300.01011
300.00432
299.99928
299.99845
299.99799
299.9979
299.99801
299.99676
299.9974
299.99892
300.00451
299.99686
299.99653
300.01033
300.02035
300.00894
299.99757
300.00197
300.00845
300.01291
300.02881
300.03516
300.025
300.0114
300.01782
300.00491
300.00323
299.99516
299.99566
299.99592
300.003
300.00268
299.99675
299.99855
299.99619
299.99337
299.99473
299.99564
299.99624
299.99354
299.99269
299.99399
299.99248
299.99031
299.99199
299.9915
299.99324
299.99164
299.98956
299.98962
299.99058
299.99288
299.99499
299.99368
299.99178
299.99278
299.99184
299.99073
299.99382
299.99187
299.98789
299.98765
299.99046
299.99199
299.99498
299.99451
299.99606
299.99847
299.99338
299.99508
299.99641
299.99679
299.99728
300.00841
300.01979
300.00798
300.01063
300.02412
300.03419
300.02821
300.0124
300.01693
300.00416
300.00234
300.00158
299.99542
299.99547
299.99549
299.99486
300.00278
300.00304
300.01579
300.03662
300.04929
300.03617
300.04039
300.0546
300.06205
300.05712
300.04189
300.04636
300.03249
300.03002
300.02706
300.016
300.01817
300.01979
300.01781
300.03029
300.03146
300.01735
300.0465
300.06328
300.04544
300.04971
300.06865
300.0737
300.06968
300.04754
300.05077
300.03098
300.03304
300.01826
300.01723
300.01436
300.03131
300.02898
300.01715
300.01766
300.01625
300.03716
300.05017
300.03703
300.04271
300.05797
300.06317
300.05574
300.04152
300.04746
300.03358
300.03109
300.02788
300.01677
300.01857
300.02086
300.01922
300.03113
300.03231
300.01938
300.01227
300.01086
300.02761
300.03964
300.0416
300.02943
300.01198
300.01857
300.00195
300.00437
300.01146
300.01181
300.01073
300.00346
299.99998
299.98772
299.99325
299.99659
300.00191
300.00268
300.00332
300.00224
300.01095
300.01063
300.00867
300.01791
300.03218
300.04617
300.06404
300.06968
300.05074
300.05166
300.04815
300.03185
300.01491
300.01479
300.01928
300.03405
300.03187
300.02648
300.02942
300.04839
300.05411
300.07347
300.04799
300.04893
300.07636
300.07612
300.07642
300.04611
300.04355
300.01687
300.0258
300.00639
300.01392
300.00091
300.0068
300.00992
300.01077
300.00998
300.00203
300.00243
300.00132
300.00127
300.00988
300.00798
299.99971
299.98752
299.9931
299.99788
299.99306
299.99273
299.99762
299.99516
299.996
299.99109
299.99036
299.98565
299.98756
299.9927
299.99854
299.99729
299.99057
299.99323
300.00392
299.9983
299.99424
299.98069
299.98083
299.98716
299.98192
299.97884
299.9836
299.99057
299.98696
299.99297
299.99641
299.99363
299.99434
299.99621
299.99805
299.99626
299.99744
299.9956
299.9946
299.9938
299.99264
299.99242
299.99149
299.99291
299.99112
299.99177
299.99021
299.98935
299.98865
299.98915
299.98747
299.98832
299.98902
299.99132
299.99043
299.98819
299.98546
299.98662
299.98871
299.98748
299.98284
299.98517
299.98294
299.98201
299.98256
299.98574
299.98539
299.9877
299.98679
299.98731
299.98453
299.98421
299.98056
299.98247
299.97837
299.97785
299.97811
299.98319
299.98109
299.9752
299.9764
299.97966
299.9739
299.97616
299.98308
299.98936
299.98756
299.98209
299.98278
299.98595
299.98855
299.9893
299.99172
299.99352
299.99154
299.99102
299.99337
299.99842
299.99596
299.99136
299.99819
299.99913
299.99372
300.00447
300.00183
300.00782
300.0051
300.00978
300.0206
300.01955
300.01861
300.0325
300.04478
300.04365
300.0591
300.06698
300.04964
300.05018
300.06928
300.06195
300.06326
300.04482
300.04939
300.07019
300.07012
300.06419
300.04412
300.04772
300.02862
300.03143
300.03352
300.03439
300.0336
300.05207
300.07315
300.07453
300.05124
300.04794
300.05118
300.02918
300.01081
300.01763
300.01395
300.01876
300.01582
300.01705
300.03161
300.03017
300.0147
300.0123
300.00327
300.00897
300.02695
300.03106
300.02389
300.00441
299.99635
300.01669
300.04253
300.04871
300.07412
300.07243
300.04502
300.03569
300.00833
300.02196
300.01675
300.02562
300.02861
300.01691
300.01139
300.01172
299.99542
300.00008
300.00136
299.9931
299.99159
299.98866
299.9916
299.99052
299.9992
300.01092
300.03048
300.03006
300.04205
300.0421
300.01585
299.99765
299.99925
300.00316
300.00543
300.00801
300.00998
300.00054
300.00249
300.00058
299.99769
300.0072
300.00075
299.99051
299.99508
299.98618
299.99143
299.98436
299.98761
299.98227
299.98798
299.98631
299.97947
299.97065
299.97615
299.98119
299.98748
299.99872
300.01062
300.00297
300.02419
300.04637
300.07662
300.07391
300.07704
300.04967
300.04403
300.07659
300.07173
300.07646
300.04267
300.03378
300.07157
300.06134
300.01816
300.03402
300.00364
300.01676
300.02398
300.00275
300.01025
299.99521
299.97993
299.99424
299.98026
299.99574
300.00717
299.99281
299.9819
299.96937
299.97802
299.98976
299.98041
299.9642
299.97943
299.98953
299.9778
299.98715
299.98117
299.99204
299.97979
299.9688
299.96252
299.97434
299.97009
299.97588
299.96727
299.97164
299.96202
299.97185
299.96744
299.95973
299.96306
299.975
299.96712
299.97916
299.98807
299.99402
299.99741
299.99214
299.98902
299.98611
299.99
299.99526
299.99102
299.98356
299.97892
299.98312
299.97463
299.96871
299.97255
299.97924
299.98979
299.99683
299.98449
299.9997
300.02041
300.04616
300.07692
300.07257
300.03611
300.02385
300.03926
300.07333
300.06426
300.04727
300.06226
300.01976
299.9958
300.04434
300.10343
300.08778
300.06513
300.09115
300.07348
300.03614
300.13599
300.15315
300.12975
300.15178
300.24962
300.24653
300.32661
300.39881
300.43521
300.5092
300.56871
300.47549
300.43654
300.46872
300.55918
300.62713
300.66087
300.76177
300.68411
300.75904
300.70747
300.62249
300.67229
300.76671
300.83579
300.94342
300.84973
300.79128
300.71057
300.77505
300.68132
300.72704
300.84377
300.94943
300.86892
300.95995
300.86298
300.73
300.66216
300.5917
300.55485
300.46534
300.48685
300.52809
300.50686
300.62059
300.68208
300.62342
300.50894
300.53376
300.49347
300.60003
300.66975
300.73557
300.56526
300.54059
300.56096
300.58543
300.79424
300.83096
300.75014
300.68016
300.61164
300.70474
300.71085
300.7909
300.80114
300.88207
300.89292
300.83404
300.69205
300.67846
300.6295
300.52191
300.71047
300.59554
300.8762
301.00024
300.9979
300.90488
300.8817
301.02661
301.02563
301.1551
301.07331
301.16586
301.0139
300.89812
300.77168
300.72096
300.8194
300.82725
300.73837
300.80222
300.92507
301.03981
300.92468
300.92287
301.03802
301.06563
301.22542
301.1242
300.95337
300.89039
300.79984
300.72187
300.65339
300.57051
300.57261
300.49244
300.41476
300.37896
300.44263
300.50497
300.42085
300.42385
300.4599
300.44457
300.55316
300.64604
300.71413
300.61297
300.52704
300.5264
300.49156
300.4142
300.3449
300.2842
300.23358
300.24515
300.24151
300.19726
300.18945
300.23029
300.21654
300.21948
300.2014
300.16674
300.16464
300.17847
300.1744
300.12454
300.08711
300.09091
300.10126
300.09443
300.05021
300.02901
300.03296
300.0497
300.07374
300.07254
300.0489
300.07023
300.10122
300.09449
300.06625
300.08152
300.11476
300.1019
300.07275
300.08416
300.07499
300.04084
300.0076
300.02346
300.05301
300.05955
300.04302
300.04692
300.06936
300.06373
300.08494
300.0736
300.08814
300.06467
300.05445
300.05274
300.06438
300.07257
300.08388
300.05436
300.06539
300.11229
300.09191
300.1223
300.11033
300.09581
300.06968
300.07979
300.10494
300.13149
300.15853
300.18177
300.21805
300.20283
300.1476
300.12283
300.10794
300.17632
300.16681
300.21247
300.27442
300.28242
300.29572
300.37733
300.36583
300.27696
300.28491
300.2195
300.17751
300.18376
300.12082
300.08129
300.03187
300.04828
300.03943
300.02812
300.01323
300.01401
300.03112
300.0442
300.03114
300.03849
300.05566
300.04508
300.06193
300.07483
300.08633
300.09987
300.1328
300.14265
300.15519
300.16535
300.17672
300.1848
300.19269
300.18497
300.22409
300.23528
300.22535
300.2151
300.17749
300.16758
300.15548
300.16125
300.19444
300.19901
300.23803
300.24088
300.26549
300.31891
300.28472
300.28158
300.3147
300.26192
300.28012
300.29077
300.29532
300.36419
300.35838
300.33993
300.33043
300.27233
300.28303
300.34856
300.33266
300.2706
300.26111
300.31661
300.29499
300.30676
300.25515
300.21104
300.20298
300.18774
300.22474
300.2327
300.27567
300.26665
300.23194
300.23775
300.24132
300.24323
300.21058
300.21073
300.17555
300.15294
300.15293
300.12916
300.12816
300.14889
300.17741
300.17921
300.15194
300.12459
300.12488
300.1091
300.08396
300.09519
300.09576
300.08418
300.10862
300.10774
300.12645
300.14622
300.17405
300.1499
300.14661