/*--------------------------------*- C++ -*----------------------------------*\
  =========                 |
  \\      /  F ield         | OpenFOAM: The Open Source CFD Toolbox
   \\    /   O peration     | Website:  https://openfoam.org
    \\  /    A nd           | Version:  7
     \\/     M anipulation  |
\*---------------------------------------------------------------------------*/
FoamFile
{
    version     2.0;
    format      ascii;
    class       volScalarField;
    location    "380";
    object      nut;
}
// * * * * * * * * * * * * * * * * * * * * * * * * * * * * * * * * * * * * * //

dimensions      [0 2 -1 0 0 0 0];

internalField   nonuniform List<scalar> 
24789
(
0.0012056014
0.0061741799
0.01497156
0.025701614
0.33526283
0.3372241
0.02586927
0.015072028
0.0062136717
0.0012083298
0.0012111337
0.006254089
0.015174623
0.026040422
0.33923663
0.34130312
0.0262156
0.015279644
0.0062954883
0.0012140206
0.0012169971
0.0063379315
0.015387093
0.02639478
0.34342708
0.3456122
0.026578466
0.015497264
0.00638148
0.0012200694
0.0012232453
0.006426186
0.015610152
0.026766652
0.34786202
0.3501809
0.026959835
0.015726037
0.0064721096
0.0012265324
0.0012299399
0.0065193177
0.015844962
0.027158074
0.35257367
0.35504544
0.027361801
0.015967177
0.0065678764
0.0012334753
0.0012371475
0.0066178607
0.016092795
0.027571214
0.35760179
0.36024889
0.027786793
0.016222091
0.006669351
0.0012409674
0.0012449469
0.0067224282
0.016355214
0.028008814
0.36299334
0.36584277
0.028237708
0.016492408
0.0067771764
0.0012490978
0.0012534346
0.0068336804
0.01663387
0.028473815
0.3688056
0.37189093
0.028717661
0.016779877
0.0068920347
0.0012579729
0.0012627315
0.0069523213
0.016930676
0.02896973
0.37510942
0.37847351
0.029230484
0.017086497
0.0070146209
0.001267732
0.0012730008
0.0070790184
0.01724763
0.029500508
0.38199773
0.38569934
0.029780419
0.017414341
0.0071455809
0.0012785679
0.0012844698
0.0072143662
0.017586959
0.030070998
0.38959993
0.39372641
0.0303729
0.017765708
0.0072854052
0.0012907515
0.0012974677
0.0073586764
0.017950866
0.030686983
0.39811276
0.40280327
0.031013958
0.018142552
0.0074341051
0.0013046854
0.0013124905
0.0075115078
0.018340885
0.031354738
0.40785691
0.41335378
0.031709752
0.018545611
0.0075905738
0.0013209911
0.0013303219
0.0076707883
0.01875605
0.032078846
0.41940284
0.42615781
0.032460704
0.018970807
0.0077513865
0.0013406913
0.0013524259
0.0078313851
0.019188619
0.032853587
0.43383941
0.44274306
0.033254806
0.019408388
0.0079098566
0.0013659113
0.0013825029
0.0079922997
0.019633094
0.033675565
0.45336943
0.46715043
0.034252338
0.01993606
0.0081048467
0.0014065132
0.0014411998
0.0082604692
0.020505873
0.035314255
0.48634066
0.51546945
0.037320352
0.02176781
0.0087989038
0.001480789
0.0015065398
0.0090763029
0.022285378
0.037917103
0.53637319
0.55302692
0.040383808
0.02369567
0.0096208148
0.0015341234
0.0015221098
0.010067239
0.025104163
0.043146599
0.55176598
0.58994396
0.037191061
0.0222968
0.0091821882
0.0015003894
0.0014660458
0.0087592722
0.021368337
0.036104142
0.58226072
0.561519
0.033021129
0.019493385
0.0079491043
0.0014171818
0.0013770613
0.00760764
0.018572042
0.03155538
0.53966346
0.52275954
0.030786799
0.018118089
0.00745436
0.0013436649
0.0013212219
0.0073517272
0.017870203
0.030352191
0.50924024
0.49807091
0.030016062
0.01768385
0.0072780844
0.0013055845
0.0012927932
0.0072098998
0.017501149
0.029685082
0.48836219
0.47977951
0.029349403
0.017314319
0.0071405985
0.0012817849
0.0012720851
0.0070691138
0.017124543
0.029013689
0.47210795
0.46515834
0.028681939
0.01693398
0.0069962326
0.0012633257
0.0012553063
0.0069233713
0.016745851
0.02835854
0.45879893
0.45293318
0.028045954
0.016562232
0.0068515341
0.0012479177
0.0012410772
0.0067813535
0.016384277
0.027745269
0.44748642
0.44239902
0.027456346
0.016212333
0.0067131766
0.0012347158
0.0012287761
0.0066471358
0.016046449
0.027178799
0.43762298
0.43311943
0.026911889
0.015886417
0.0065832709
0.0012232082
0.0012179688
0.0065215473
0.015732028
0.02665504
0.42885697
0.42480971
0.026407552
0.015582997
0.0064619255
0.0012130229
0.0012083405
0.006404312
0.015439044
0.026168821
0.42095627
0.41727831
0.025938266
0.015299878
0.0063486244
0.0012038938
0.0011996625
0.0062947808
0.015165254
0.025715419
0.41376035
0.41038875
0.025499788
0.015034913
0.0062426767
0.0011956263
0.0011917697
0.006192239
0.014908592
0.025290873
0.40715188
0.40403929
0.025088358
0.014786102
0.0061433678
0.0011880787
0.0011845395
0.0060959853
0.014667189
0.024891801
0.40104169
0.39815079
0.024700972
0.014551726
0.0060500224
0.0011811423
0.0011778757
0.0060053815
0.014439417
0.024515364
0.39535876
0.39265949
0.024334876
0.01433021
0.0059620204
0.0011747311
0.0011717007
0.0059198517
0.014223827
0.024159031
0.39004635
0.38751363
0.023987813
0.014120244
0.0058788261
0.0011687754
0.0011659473
0.0058388624
0.014019146
0.023820671
0.38505534
0.38266685
0.023657684
0.01392057
0.0057999215
0.0011632087
0.0011605539
0.005761945
0.01382422
0.023498313
0.38034358
0.37808149
0.023342662
0.013730128
0.005724881
0.001157976
0.0011554667
0.0056887605
0.013638152
0.023190381
0.37587998
0.3781779
0.023347338
0.013732963
0.0057259964
0.0011580334
0.0011606194
0.0057631348
0.013827245
0.02350332
0.38044495
0.38277589
0.02366306
0.013923824
0.0058012063
0.0011632818
0.0011660265
0.0058402414
0.014022628
0.023826441
0.38517297
0.38764067
0.023993969
0.014123969
0.0058803051
0.0011688602
0.0011717912
0.0059214382
0.014227816
0.024165622
0.39018377
0.39280892
0.024341921
0.014334482
0.0059637215
0.0011748286
0.0011779803
0.0060072204
0.01444401
0.024522937
0.39552209
0.39832982
0.024709118
0.01455667
0.0060520043
0.0011812542
0.0011846599
0.0060981413
0.01467255
0.024900638
0.40123908
0.4042578
0.025097938
0.014791918
0.0061457113
0.0011882077
0.0011919091
0.0061947916
0.01491491
0.025301266
0.4073946
0.4106595
0.025511121
0.015041821
0.0062454815
0.0011957771
0.0011998262
0.0062978662
0.015172852
0.025727886
0.41406333
0.41761854
0.025952022
0.015308265
0.0063520394
0.0012040729
0.0012085361
0.0064080915
0.015448305
0.02618399
0.42133904
0.42524099
0.026424349
0.015593268
0.0064661249
0.0012132385
0.0012182064
0.0065262381
0.015743475
0.026673747
0.429343
0.43366699
0.026932751
0.015899196
0.0065885161
0.0012234704
0.0012290654
0.0066530243
0.016060747
0.027202065
0.43823865
0.44308835
0.027482275
0.016228307
0.0067197729
0.0012350315
0.0012414179
0.0067887312
0.016402085
0.027774077
0.44825352
0.45377946
0.028077786
0.016581968
0.0068597337
0.00124828
0.0012556828
0.0069324246
0.016767556
0.028393404
0.45972269
0.46615225
0.028719539
0.016957491
0.0070060959
0.0012637023
0.0012724388
0.0070795905
0.017149252
0.029052961
0.47315576
0.48085267
0.029387971
0.01733887
0.0071513091
0.0012820808
0.0012929952
0.0072200635
0.017522812
0.02971831
0.4894157
0.49904891
0.030037412
0.017698828
0.0072866378
0.0013057243
0.0013213481
0.0073570424
0.017872051
0.030351628
0.51003853
0.52319305
0.030754253
0.018096338
0.0074523354
0.0013436435
0.0013785986
0.0076300553
0.018575397
0.031574931
0.54033224
0.56293811
0.033263326
0.019606221
0.0079729639
0.0014226859
0.0014599536
0.0087876572
0.021477181
0.036591964
0.58359591
0.59165035
0.034877172
0.021087902
0.0087452557
0.0014661059
0.001506298
0.0099509089
0.024835215
0.042575541
0.55253253
0.55999828
0.039869554
0.023121506
0.0093482058
0.0014976284
0.0015203823
0.009623157
0.023977731
0.041533683
0.53788264
0.51408025
0.037403673
0.021902387
0.0088292708
0.0014872492
0.0014411349
0.0083441084
0.020495085
0.035069045
0.48835515
0.46966498
0.033847591
0.019791488
0.0080920609
0.0014018214
0.0013755611
0.0079426958
0.019429596
0.033211328
0.45588101
0.44488382
0.032749737
0.019166307
0.0078383437
0.0013574734
0.0013431054
0.0077482482
0.018929721
0.032331302
0.43561571
0.42761333
0.031929767
0.018702942
0.0076623484
0.0013310401
0.0013205639
0.0075776951
0.018481359
0.031540785
0.42057265
0.41426977
0.031164921
0.01826498
0.0074942079
0.0013112005
0.0013026902
0.0074124485
0.018055177
0.030803895
0.40854967
0.40330231
0.030458219
0.0178527
0.007332854
0.0012948792
0.0012876572
0.0072557111
0.017657811
0.030127597
0.39844568
0.39391825
0.029811136
0.017470377
0.0071811743
0.001280941
0.0012746645
0.0071092623
0.017290159
0.029507971
0.38967328
0.38567363
0.029217044
0.01711673
0.0070399178
0.0012687732
0.0012632238
0.0069730715
0.016949756
0.028937531
0.38189015
0.37829887
0.028668525
0.016788804
0.0069086065
0.0012579792
0.0012530075
0.0068464121
0.016633537
0.028409331
0.37488016
0.37161736
0.028159201
0.016483567
0.0067863606
0.0012482816
0.0012437789
0.0067283328
0.016338564
0.027917528
0.36849615
0.36550444
0.027683785
0.01619825
0.0066722248
0.0012394804
0.001235369
0.0066179291
0.016062329
0.027457447
0.36263158
0.35986846
0.027238101
0.015930574
0.0065653488
0.0012314304
0.0012276517
0.0065143844
0.015802696
0.027025243
0.3572066
0.35463885
0.026818621
0.01567855
0.006464956
0.001224021
0.0012205277
0.0064169714
0.015557849
0.026617731
0.35215859
0.3497598
0.026422415
0.015440493
0.0063703632
0.0012171631
0.0012139184
0.006325042
0.015326179
0.02623213
0.34743643
0.34518343
0.026046815
0.015214846
0.0062809367
0.001210785
0.0012077547
0.0062379791
0.0151062
0.025865933
0.34299584
0.34087037
0.025689562
0.015000273
0.0061961256
0.0012048203
0.0012019757
0.0061553126
0.014896758
0.025517142
0.338803
0.33679263
0.025348896
0.014795757
0.0061155189
0.001199215
0.0012084533
0.0062154543
0.015076491
0.025876727
0.33731279
0.33933177
0.026047705
0.01517898
0.0062557984
0.0012112449
0.0012141266
0.0062971992
0.015283935
0.026222752
0.34140618
0.34353871
0.026402281
0.015391592
0.0063396982
0.0012171028
0.0012201791
0.0063833328
0.015501913
0.026586214
0.34573312
0.34799378
0.026774996
0.015615155
0.0064281568
0.0012233613
0.001226657
0.0064742151
0.015731319
0.026968638
0.3503249
0.35273183
0.027167609
0.015850678
0.0065215814
0.0012300739
0.001233621
0.0065703272
0.015973317
0.027372037
0.35521971
0.35779445
0.027582401
0.0160995
0.0066205272
0.0012373069
0.0012411416
0.0066722493
0.016229349
0.027798914
0.36046297
0.36323243
0.028022041
0.016363139
0.0067255938
0.0012451377
0.0012493083
0.0067806506
0.016501075
0.02825216
0.36611068
0.36910674
0.028489781
0.016643437
0.0068375144
0.001253668
0.0012582327
0.0068962893
0.01679047
0.028735343
0.37223081
0.37549484
0.028989328
0.016942426
0.006957051
0.001263022
0.0012680586
0.0070199337
0.017099652
0.029252387
0.37891205
0.38249807
0.029525082
0.017262399
0.0070849965
0.0012733673
0.0012789807
0.0071523459
0.017431013
0.029808127
0.38627226
0.390258
0.030102218
0.017605791
0.0072220496
0.0012849361
0.0012912812
0.0072941918
0.017787164
0.030408357
0.39448469
0.39898949
0.030727396
0.017975424
0.0073688035
0.0012980721
0.0013053809
0.0074458788
0.018170945
0.031060435
0.40382061
0.40904201
0.031408468
0.018373942
0.0075253447
0.0013132993
0.0013219444
0.0076070519
0.018584586
0.031772506
0.41473952
0.42102804
0.032152741
0.018802526
0.0076907264
0.0013314672
0.0013421034
0.0077759509
0.019027107
0.032548794
0.42806749
0.43608778
0.032960824
0.019258542
0.0078625607
0.0013542414
0.0013683877
0.0079514768
0.019499665
0.03339137
0.44539898
0.45649177
0.033859678
0.019760278
0.0080516094
0.0013859754
0.0014111598
0.0081934279
0.020119867
0.034508053
0.47067452
0.48995325
0.035685726
0.020774401
0.0083911063
0.0014478061
0.0014905801
0.008941992
0.02215328
0.037967487
0.51794473
0.5385536
0.039441949
0.023053339
0.009353633
0.0015191772
0.0015361735
0.0096920163
0.02385177
0.04064478
0.55647241
0.55632418
0.043603078
0.025354082
0.010150042
0.0015267302
0.4297176
0.053271663
0.029948891
0.011743404
0.0016884577
0.0015860992
0.010392534
0.025799555
0.044808096
0.54449778
0.62229838
0.037340192
0.02238515
0.0092639326
0.0015131169
0.0014929951
0.0092292762
0.02260425
0.038658718
0.57378088
0.56352298
0.040834438
0.023580695
0.0095044043
0.0015071436
0.0015065004
0.0093823862
0.023316706
0.040119061
0.54016831
0.51259981
0.036776122
0.02150868
0.0086880653
0.001474037
0.0014325386
0.0082363349
0.020241227
0.034701043
0.48582292
0.46734466
0.033630746
0.019641965
0.0080281979
0.0013962431
0.0013719012
0.0079018886
0.019330626
0.033065314
0.45386543
0.44321314
0.032644953
0.019096933
0.0078103647
0.0013550057
0.0013413555
0.0077281423
0.018879677
0.032253917
0.43426165
0.42652237
0.03187122
0.018665779
0.007647569
0.0013297642
0.0013196133
0.0075665979
0.018453199
0.031495755
0.41969427
0.41356194
0.031129901
0.018243343
0.007485736
0.0013104801
0.0013021343
0.0074058297
0.018038235
0.030776238
0.40797676
0.40283523
0.030435991
0.017839165
0.0073275708
0.0012944423
0.0012873092
0.0072514409
0.01764686
0.030109516
0.39806234
0.39360153
0.02979621
0.017461371
0.0071776581
0.0012806605
0.0012744361
0.0071063332
0.017282665
0.029495524
0.38940978
0.38545319
0.029206589
0.017110454
0.0070374646
0.0012685863
0.0012630691
0.0069709921
0.016944448
0.028928683
0.38170473
0.37814196
0.028660975
0.016784277
0.0069068273
0.0012578493
0.0012528973
0.0068448668
0.016629614
0.028402784
0.37474655
0.37150275
0.028153475
0.016480135
0.0067850062
0.0012481878
0.0012436987
0.0067271495
0.01633557
0.027912541
0.36839733
0.3654187
0.027679399
0.016195614
0.0066711804
0.001239411
0.0012353088
0.0066170027
0.016059994
0.02745356
0.3625569
0.35980315
0.027234628
0.015928492
0.0065645231
0.0012313775
0.0012276049
0.0065136499
0.015800842
0.027022148
0.35714949
0.35458856
0.026815834
0.015676879
0.0064642927
0.0012239795
0.0012204909
0.0064163717
0.015556339
0.026615215
0.35211386
0.3497199
0.02642012
0.015439118
0.0063698181
0.0012171299
0.0012138879
0.0063245419
0.015324919
0.026230034
0.34740087
0.34515182
0.026044885
0.015213686
0.0062804768
0.0012107566
0.0012077275
0.006237555
0.01510513
0.025864153
0.34296796
0.34084615
0.025687908
0.014999281
0.0061957344
0.0012047938
0.0012019489
0.0061549484
0.014895832
0.025515595
0.33878255
0.33677615
0.025347411
0.014794865
0.006115165
0.001199186
0.0011580133
0.0057253638
0.013731263
0.023344475
0.37811685
0.38037585
0.023500098
0.013825321
0.0057623755
0.0011605843
0.0011632335
0.0058003126
0.0139215
0.023659194
0.38269763
0.38508577
0.023822268
0.014020112
0.005839233
0.0011659681
0.0011687944
0.0058791828
0.014121108
0.023989245
0.38754391
0.39007688
0.024160571
0.014224752
0.0059202094
0.0011717182
0.0011747482
0.0059623706
0.014331064
0.024336289
0.3926899
0.39538916
0.02451686
0.014440319
0.0060057359
0.0011778913
0.0011811559
0.0060503642
0.014552558
0.02470236
0.3981807
0.40107098
0.024893228
0.014668041
0.0060963219
0.0011845509
0.0011880872
0.0061436861
0.014786885
0.025089673
0.4040675
0.40717885
0.025292163
0.014909353
0.0061925369
0.0011917755
0.001195629
0.0062429552
0.015035603
0.025500964
0.41041407
0.41378349
0.02571652
0.01516589
0.0062950272
0.0011996611
0.0012038882
0.0063488292
0.01530042
0.025939235
0.41729843
0.42097193
0.026169616
0.015439462
0.0064044567
0.0012083297
0.0012130076
0.0064619905
0.015583262
0.026408139
0.424819
0.42885696
0.026655287
0.01573206
0.0065215087
0.0012179464
0.0012231756
0.0065830738
0.015886138
0.026911699
0.43310629
0.43759131
0.027177931
0.016045702
0.0066467226
0.0012287307
0.0012346532
0.0067124618
0.016210978
0.02745462
0.44234179
0.44739355
0.027742183
0.016381978
0.0067801999
0.0012409899
0.0012477969
0.0068497436
0.016558607
0.02804099
0.45279207
0.45859345
0.028350655
0.016740185
0.0069206462
0.0012551374
0.0012630876
0.0069920976
0.016925279
0.028669771
0.4648695
0.4717159
0.028995018
0.017111203
0.0070628683
0.0012717515
0.0012813238
0.0071313709
0.01729436
0.029321522
0.479269
0.48773021
0.029644158
0.017471724
0.0071965282
0.0012921649
0.0013047665
0.00725916
0.017641729
0.029958008
0.49735075
0.50851854
0.030271021
0.017810296
0.0073249617
0.0013201431
0.001342088
0.0074172751
0.018032629
0.030674704
0.52223784
0.53998418
0.031416285
0.018462207
0.0075683251
0.0013752123
0.0014156032
0.0078856656
0.019318965
0.032751252
0.56293586
0.58428898
0.03517412
0.02093559
0.0086235806
0.0014610812
0.0015033923
0.0092349365
0.022390632
0.037257405
0.59272835
0.55378462
0.044801512
0.025888226
0.010384209
0.0015457848
0.0015514253
0.0098213418
0.024235331
0.041355295
0.55456105
0.53668298
0.037251037
0.021981696
0.008974139
0.0015065495
0.0014874427
0.0089063267
0.022062784
0.037971423
0.51561941
0.48676176
0.035530661
0.02063863
0.0083087711
0.0014462088
0.0014094904
0.0081361068
0.020002469
0.034341847
0.46754737
0.45347924
0.033700737
0.019654068
0.0080031595
0.001384162
0.0013667217
0.00791217
0.019412171
0.033257178
0.44269904
0.43373601
0.032849588
0.019186992
0.0078309636
0.0013528055
0.0013408608
0.007750125
0.018968056
0.032455975
0.42604335
0.41929682
0.032074709
0.018753386
0.0076694372
0.001330391
0.0013210135
0.0075893885
0.018543413
0.031706508
0.41326327
0.40778336
0.031352216
0.01833913
0.0075105526
0.0013124922
0.0013046784
0.0074333667
0.018141245
0.031012139
0.40274591
0.3980692
0.030685618
0.017949875
0.0073581217
0.0012974577
0.0012907417
0.007284998
0.017765009
0.030371971
0.39369435
0.38957684
0.030070326
0.017586444
0.0072140717
0.0012844604
0.0012785597
0.007145377
0.017414008
0.02978001
0.38568341
0.38198718
0.029500249
0.017247411
0.0070788864
0.0012729945
0.0012677267
0.0070145424
0.017086387
0.029230377
0.3784674
0.37510666
0.028969687
0.016930613
0.0069522727
0.0012627259
0.001257968
0.0068920187
0.016779878
0.028717709
0.37189079
0.36880744
0.028473946
0.016633929
0.0068336933
0.0012534308
0.0012490955
0.0067772099
0.016492501
0.028237884
0.36584619
0.36299814
0.028009091
0.01635537
0.0067224822
0.0012449456
0.0012409674
0.0066694215
0.016222263
0.027787086
0.36025482
0.35760875
0.027571615
0.016093034
0.0066179484
0.0012371485
0.0012334776
0.0065679724
0.0159674
0.027362169
0.3550531
0.35258188
0.027158569
0.015845258
0.0065194271
0.0012299439
0.0012265381
0.0064722275
0.015726308
0.026960274
0.35018927
0.34787067
0.026767246
0.015610509
0.0064263159
0.0012232516
0.0012200771
0.0063816152
0.015497571
0.026578956
0.34562065
0.34343553
0.026395466
0.015387511
0.0063380835
0.0012170068
0.0012140347
0.0062956638
0.015280039
0.026216222
0.34131068
0.33924315
0.02604137
0.015175205
0.0062543094
0.0012111543
0.0012083594
0.0062139563
0.01507268
0.0258703
0.33722929
0.33732217
0.025875014
0.015075442
0.0062150013
0.0012083962
0.0012112112
0.0062555223
0.015178271
0.026046538
0.33933702
0.3414089
0.026222184
0.015283585
0.0062970418
0.0012141077
0.001217092
0.0063396006
0.015391304
0.026401803
0.34353976
0.34573392
0.026585976
0.015501769
0.0063832687
0.0012201713
0.0012233547
0.0064281027
0.015614968
0.02677468
0.34799433
0.3503256
0.026968453
0.015731211
0.0064741751
0.0012266502
0.001230066
0.0065215498
0.015850526
0.027167337
0.35273232
0.35522007
0.027371807
0.015973191
0.006570293
0.0012336105
0.0012372935
0.0066204927
0.016099319
0.027582067
0.35779443
0.36046246
0.027798614
0.016229202
0.0066722314
0.0012411252
0.0012451174
0.0067255819
0.016362951
0.028021652
0.36323114
0.36610867
0.028251732
0.016500881
0.0067806494
0.0012492819
0.0012536342
0.0068375272
0.01664321
0.028489258
0.36910377
0.37222647
0.028734712
0.01679021
0.0068963149
0.0012581893
0.0012629665
0.0069571054
0.01694214
0.028988579
0.37548825
0.37890176
0.029251402
0.017099269
0.007019991
0.001267987
0.0012732753
0.0070850664
0.017261907
0.029523809
0.38248205
0.38624719
0.029806384
0.017430315
0.0071524123
0.0012788613
0.0012847806
0.007222093
0.017604825
0.030099876
0.39021942
0.3944257
0.030405011
0.017785706
0.0072941592
0.0012910762
0.0012978002
0.0073686204
0.017973252
0.030722641
0.39890018
0.40368665
0.031053404
0.018167559
0.0074453985
0.0013050165
0.0013128094
0.0075243438
0.018368714
0.03139808
0.4088437
0.41445039
0.031756898
0.018576418
0.0076051845
0.0013212855
0.0013305882
0.0076874821
0.018789938
0.032129406
0.42061467
0.42749039
0.032514199
0.019008028
0.0077707073
0.0013409557
0.0013528052
0.0078548246
0.019230685
0.032910986
0.43530523
0.44437828
0.033323053
0.019461168
0.0079417413
0.0013667353
0.0013840908
0.0080402336
0.019712048
0.033772849
0.45521843
0.46912589
0.034396023
0.020056734
0.0081800372
0.0014091196
0.0014468834
0.0084019357
0.020711885
0.035573158
0.48846206
0.51674233
0.03786406
0.022106259
0.0089219769
0.0014898498
0.0015168694
0.0094013174
0.023179256
0.039847067
0.53819246
0.5555206
0.039310987
0.023150692
0.0094508719
0.0015144238
1.3057372
2.2731167
1.6525523
0.59451376
0.037314187
0.022377061
0.009206841
0.0015038451
0.0015215425
0.0096530071
0.02401935
0.041686907
0.56124197
0.0016613086
0.011409436
0.028983166
0.051361149
0.42730648
0.37120688
0.04853061
0.027385849
0.010787213
0.0015997429
0.0016106725
0.010781259
0.02743769
0.04868616
0.37003441
0.49228604
0.046538526
0.026493173
0.010566997
0.0015795297
0.89255008
1.0683807
2.0853813
1.6601359
6.9598943
7.0385182
7.0132726
6.9598581
6.9139559
6.9647848
6.9714285
6.9255716
0.001199227
0.0061157541
0.014796383
0.025350048
0.33678131
0.33879012
0.025517974
0.014897214
0.0061554606
0.0012019802
0.0012048192
0.0061961996
0.015000445
0.025689863
0.34085437
0.34297566
0.02586606
0.01510628
0.0062379911
0.0012077486
0.0012107749
0.0062808817
0.015214679
0.026046504
0.34515763
0.34740444
0.026231629
0.015325905
0.0063249249
0.0012139035
0.0012171431
0.0063701624
0.015439959
0.026421459
0.34972039
0.35211113
0.026616497
0.015557148
0.0064166886
0.0012205025
0.0012239901
0.00646458
0.015677577
0.026816919
0.35458249
0.35714024
0.027023179
0.015801513
0.0065139168
0.0012276149
0.0012313873
0.0065647657
0.015929072
0.027235502
0.35979061
0.36254097
0.027454318
0.016060512
0.0066172159
0.0012353179
0.0012394203
0.0066713715
0.016196056
0.02768001
0.36539917
0.36837388
0.027913049
0.016335961
0.0067273222
0.0012437085
0.001248198
0.0067851656
0.016480466
0.028153881
0.37147523
0.37471488
0.028402991
0.016629847
0.0068449999
0.0012529068
0.0012578579
0.0069069424
0.016784427
0.028661005
0.37810626
0.38166524
0.028928528
0.016944509
0.0069710949
0.0012630756
0.0012685911
0.0070375741
0.017110473
0.029206324
0.38541098
0.38936637
0.029495076
0.017282622
0.0071064675
0.0012744389
0.0012806614
0.0071778441
0.017461339
0.029795699
0.39356012
0.39802816
0.030108967
0.01764688
0.0072517321
0.0012873099
0.0012944459
0.0073280621
0.017839445
0.030435716
0.40281673
0.40798699
0.030776434
0.018038938
0.0074066456
0.0013021478
0.0013105181
0.0074871325
0.018245018
0.031131367
0.41362181
0.41983576
0.031499808
0.01845675
0.0075690278
0.0013197027
0.0013299551
0.0076518811
0.018673226
0.031880921
0.42679323
0.43472947
0.032275115
0.01889478
0.0077358101
0.0013417226
0.0013556148
0.0078239431
0.019126373
0.032688705
0.44396312
0.45504207
0.033155491
0.019387649
0.0079256471
0.001372898
0.0013981149
0.0080723139
0.019768203
0.033835317
0.46935204
0.48876775
0.035086206
0.020467405
0.0082883272
0.0014343525
0.0014715185
0.0088627565
0.021868565
0.037426234
0.51624934
0.53832071
0.038366605
0.022498614
0.0091234327
0.0014915587
0.0015179457
0.0096182785
0.023953426
0.041576087
0.55760188
0.037807416
0.022630721
0.0093880411
0.0015207167
0.0014956317
0.008909516
0.021337013
0.035445812
0.60966032
0.52785617
0.040411004
0.023401063
0.0094731686
0.0015430162
0.0015669231
0.010409096
0.026145915
0.046261287
0.48576838
0.56703433
0.039250083
0.022821825
0.0093222397
0.0014924219
0.0015179379
0.009617822
0.023952525
0.041574823
0.5577182
0.53838929
0.038366133
0.022497871
0.009123022
0.0014915739
0.0014715255
0.0088621463
0.02186726
0.037424562
0.51628626
0.48878595
0.035083391
0.020465693
0.0082876426
0.0014343481
0.0013980961
0.0080713266
0.01976589
0.033831683
0.46935437
0.45503462
0.033151686
0.019385245
0.0079246451
0.0013728736
0.0013555876
0.0078229565
0.019123995
0.032684909
0.44394708
0.43470622
0.032271193
0.018892326
0.0077347841
0.0013416913
0.0013299188
0.0076508276
0.018670699
0.031876878
0.42676442
0.4198031
0.03149573
0.018454215
0.0075679759
0.0013196633
0.0013104763
0.0074860841
0.018242486
0.031127289
0.41358718
0.40795127
0.030772411
0.018036452
0.0074056197
0.0013021041
0.0012944023
0.0073270721
0.017837031
0.030431796
0.40278082
0.39799241
0.030105172
0.017644549
0.0072507778
0.0012872671
0.00128062
0.0071769271
0.017459087
0.029792025
0.39352505
0.38933201
0.029491484
0.017280426
0.0071055734
0.0012743983
0.0012685521
0.0070367046
0.017108323
0.029202796
0.38537742
0.3816323
0.028925073
0.016942402
0.0069702409
0.0012630382
0.0012578215
0.0069060983
0.016782344
0.028657603
0.3780737
0.37468225
0.028399564
0.016627751
0.0068441499
0.0012528715
0.0012481625
0.0067843094
0.016478353
0.028150426
0.37144222
0.36834009
0.0279096
0.016333842
0.0067264656
0.0012436732
0.001239385
0.0066705049
0.016193914
0.027676521
0.36536431
0.3625049
0.027450759
0.016058337
0.0066163407
0.0012352818
0.0012313498
0.0065638669
0.015926833
0.027231829
0.35975311
0.35710105
0.027019447
0.015799229
0.0065129967
0.0012275755
0.0012239493
0.0064636524
0.01567526
0.026813121
0.35454156
0.35206823
0.026612642
0.015554791
0.006415744
0.0012204602
0.0012170995
0.0063692055
0.015437552
0.026417501
0.34967523
0.34735731
0.026227588
0.01532345
0.0063239461
0.0012138578
0.001210727
0.0062798954
0.015212186
0.02604237
0.34510885
0.34292568
0.025861855
0.015103745
0.0062369929
0.0012076991
0.0012047669
0.0061951818
0.014997848
0.025685518
0.34080324
0.33873866
0.025513494
0.01489455
0.0061544241
0.0012019249
0.0011991668
0.0061146444
0.014793493
0.025345125
0.33672744
0.33477061
0.025180948
0.014694995
0.0060759087
0.0011964852
0.3372702
0.02587426
0.015075057
0.0062148815
0.0012084018
0.0012111939
0.0062551439
0.015177305
0.026044876
0.3392811
0.34134699
0.026219813
0.015282194
0.0062964951
0.0012140724
0.0012170423
0.0063388917
0.015389528
0.026398794
0.34346928
0.34565215
0.02658233
0.015499616
0.0063824112
0.00122011
0.0012232815
0.0064270848
0.015612419
0.026770366
0.34789936
0.35021524
0.026963403
0.015728223
0.0064729811
0.0012265648
0.0012299677
0.0065201573
0.015847053
0.027161481
0.35260451
0.35507257
0.027365029
0.015969168
0.0065686795
0.0012334977
0.0012371652
0.0066186141
0.016094667
0.02757424
0.35762466
0.36026696
0.027789617
0.016223841
0.006670061
0.0012409801
0.001244954
0.0067230828
0.016356819
0.028011392
0.36300678
0.36585152
0.028240034
0.016493867
0.0067777722
0.0012491006
0.0012534336
0.0068342298
0.016635222
0.028475976
0.36880948
0.37189005
0.028719635
0.016781102
0.0068925248
0.0012579682
0.0012627246
0.0069527531
0.016931762
0.028971476
0.37510376
0.37846264
0.029232039
0.017087472
0.0070150017
0.0012677235
0.0012729909
0.007079336
0.017248499
0.029501927
0.38198083
0.38567598
0.029781706
0.017415106
0.0071458385
0.0012785573
0.0012844593
0.0072145485
0.017587593
0.030072103
0.38956925
0.39368677
0.030373781
0.017766202
0.0072855068
0.0012907428
0.0012974607
0.0073586855
0.017951206
0.030687639
0.39806178
0.40273846
0.031014278
0.018142671
0.0074339829
0.0013046827
0.0013124982
0.0075112388
0.018340725
0.031354594
0.40777563
0.4132543
0.031709028
0.018545135
0.0075901566
0.0013210202
0.0013303971
0.0076703109
0.018755334
0.032077505
0.41928553
0.42602754
0.032458949
0.018970185
0.0077511093
0.0013408652
0.0013528078
0.007832098
0.019189393
0.032852851
0.43371271
0.44266331
0.033260661
0.019414818
0.007913481
0.0013667201
0.0013841526
0.0080046897
0.019657135
0.033704686
0.45342471
0.46746493
0.034346425
0.020006129
0.0081379505
0.0014094676
0.0014461659
0.0083109141
0.020642762
0.035535779
0.48663113
0.51540026
0.037977521
0.022066684
0.0089082058
0.0014873718
0.0015064166
0.0089754387
0.021983378
0.03725201
0.53641709
0.55420703
0.041353162
0.024235032
0.0098212918
0.0015513611
0.0015459403
0.010380077
0.025893927
0.044817509
0.55339377
0.59231575
0.037270318
0.02239773
0.0092376328
0.0015033902
0.0015070006
0.0095110901
0.023594744
0.040858835
0.56306133
0.55958992
0.039854438
0.023113569
0.0093460819
0.001497075
0.0014659902
0.0087429804
0.021084992
0.034872611
0.5911794
0.55511499
0.039306794
0.023148942
0.0094489388
0.0015144317
0.0015361945
0.0096866305
0.023844872
0.040633622
0.55615832
0.59417873
0.037306835
0.02237211
0.0092027137
0.0015039327
0.0015214802
0.0096473462
0.024010107
0.041673223
0.56107141
0.54036191
0.037719321
0.02215598
0.0089915994
0.0014873784
0.0014679809
0.0088015049
0.0217323
0.037233962
0.51816831
0.49056707
0.03509571
0.020458952
0.0082791203
0.0014331907
0.0013974527
0.0080647735
0.019761267
0.033842208
0.47043073
0.45576711
0.033159089
0.019383278
0.0079213712
0.0013725736
0.0013554757
0.0078220783
0.019124864
0.032692336
0.44450228
0.43515519
0.032279319
0.018895136
0.0077353459
0.0013416774
0.0013299678
0.0076522815
0.018674978
0.031886048
0.42714842
0.42014274
0.031505714
0.018459458
0.0075699503
0.0013197552
0.0013105941
0.0074883115
0.018248194
0.031137575
0.41389077
0.40822252
0.030782498
0.018042206
0.0074078972
0.0013022341
0.0012945335
0.0073292711
0.017842563
0.030441345
0.40302222
0.39820631
0.030114017
0.017649723
0.0072528415
0.0012873937
0.0012807384
0.0071788199
0.017463834
0.029800086
0.39371375
0.38949787
0.029498757
0.017284728
0.0071072921
0.0012745069
0.0012686504
0.0070382487
0.017112193
0.029209321
0.38552283
0.38175969
0.028930903
0.016945869
0.0069716262
0.0012631266
0.0012579006
0.0069073352
0.016785445
0.02866281
0.37818515
0.37478002
0.02840425
0.016630552
0.0068452708
0.001252942
0.0012482258
0.0067853134
0.016480864
0.02815462
0.37152802
0.36841539
0.027913341
0.016336083
0.0067273583
0.0012437297
0.0012394352
0.006671306
0.016195919
0.02767986
0.36543047
0.36256312
0.027453746
0.016060128
0.0066170535
0.0012353266
0.0012313896
0.0065645023
0.015928434
0.027234509
0.35980424
0.35714612
0.027021878
0.015800684
0.0065135761
0.0012276118
0.0012239817
0.0064641726
0.015676573
0.026815315
0.35458124
0.35210337
0.026614611
0.015555978
0.0064162182
0.0012204889
0.0012171244
0.0063696227
0.015438611
0.026419267
0.34970648
0.3473852
0.026229171
0.015324402
0.0063243234
0.0012138795
0.001210746
0.0062802323
0.015213037
0.02604379
0.34513402
0.34294859
0.025863127
0.015104509
0.0062372949
0.0012077155
0.0012047807
0.0061954549
0.014998539