/*--------------------------------*- C++ -*----------------------------------*\
  =========                 |
  \\      /  F ield         | OpenFOAM: The Open Source CFD Toolbox
   \\    /   O peration     | Website:  https://openfoam.org
    \\  /    A nd           | Version:  7
     \\/     M anipulation  |
\*---------------------------------------------------------------------------*/
FoamFile
{
    version     2.0;
    format      ascii;
    class       volScalarField;
    location    "380";
    object      omega;
}
// * * * * * * * * * * * * * * * * * * * * * * * * * * * * * * * * * * * * * //

dimensions      [0 0 -1 0 0 0 0];

internalField   nonuniform List<scalar> 
24789
(
96336.426
30020.356
16915.599
12393.813
2050.0029
2057.9186
12433.344
16962.889
30084.474
96553.361
96776.545
30150.996
17011.854
12474.171
2065.9932
2074.2292
12516.169
17062.358
30220.033
97006.539
97243.865
30291.676
17114.639
12559.536
2082.6295
2091.1981
12604.195
17168.614
30366.066
97488.984
97742.476
30443.378
17224.536
12650.346
2099.9421
2108.8662
12697.954
17282.383
30523.823
98004.911
98276.849
30607.595
17342.399
12747.212
2117.9757
2127.2762
12798.137
17404.617
30694.924
98558.993
98852.207
30786.075
17469.281
12850.911
2136.7746
2146.4777
12905.584
17536.468
30881.313
99157.227
99474.964
30980.953
17606.425
12962.34
2156.3942
2166.5313
13021.286
17679.303
31085.302
99806.41
100152.72
31194.761
17755.364
13082.621
2176.8974
2187.5036
13146.499
17834.826
31309.734
100515.2
100895.34
31430.748
17917.992
13213.138
2198.3595
2209.4735
13282.771
18005.182
31558.327
101294.82
101715.66
31693.135
18096.758
13355.662
2220.8521
2232.4998
13432.118
18193.159
31835.935
102160.31
102631.81
31987.66
18294.857
13512.461
2244.4113
2256.57
13597.12
18402.455
32149.332
103133.65
103670.17
32322.3
18516.625
13686.55
2268.9423
2281.4648
13781.377
18638.266
32508.13
104246.86
104870.58
32708.895
18768.43
13882.318
2294.028
2306.4505
13990.47
18908.646
32927.091
105549.84
106295.59
33166.495
19061.204
14107.503
2318.4532
2329.5827
14236.227
19229.842
33432.839
107124.69
108063.34
33732.853
19420.187
14381.177
2339.0877
2345.9855
14551.708
19644.743
34074.504
109142.5
110471.16
34545.59
19937.475
14762.621
2348.4468
2338.2832
14986.407
20286.081
35240.639
112395.47
115179.1
35758.566
20517.725
15108.024
2301.8329
2232.1675
15053.164
20473.361
35724.981
117846.15
119826.88
36565.465
20966.224
15401.533
2203.1623
2193.2103
15556.499
21446.136
37801.482
125519.34
131411.92
39225.716
22026.218
15781.726
2245.3942
2072.9659
15964.4
21634.483
37764.12
124299.98
121242.49
36651.772
21052.168
15558.538
2050.5451
2070.4892
15658.468
21014.616
36427.079
117617.17
114062.47
35667.823
20703.796
15495.505
2099.6314
2116.9693
15256.276
20340.975
35003.982
111256.96
109394.1
34339.286
19963.687
14990.223
2119.8873
2115.7827
14762.896
19661.268
33867.366
108097.54
107037.72
33508.461
19427.448
14582.051
2109.236
2101.0507
14431.615
19234.044
33208.5
106125.78
105322.33
32947.775
19065.943
14300.452
2091.745
2081.8365
14182.812
18915.907
32716.402
104596.92
103932.95
32506.456
18778.833
14074.838
2071.6084
2061.2304
13974.306
18651.809
32313.488
103321.2
102754.87
32134.946
18533.099
13879.872
2050.8166
2040.4463
13790.777
18421.654
31968.912
102228.32
101736.67
31813.976
18316.647
13706.414
2030.1744
2020.0375
13626.368
18217.463
31668.867
101275.75
100842.12
31532.609
18123.526
13550.219
2010.0575
2000.2472
13477.652
18034.367
31404.23
100432.76
100045.13
31283.033
17949.56
13408.353
1990.6118
1981.1544
13342.075
17868.75
31168.332
99677.161
99326.979
31059.572
17791.615
13278.576
1971.874
1962.7694
13217.651
17717.871
30956.296
98993.045
98673.993
30858.013
17647.278
13159.129
1953.8362
1945.0715
13102.814
17579.579
30764.392
98368.566
98075.864
30675.089
17514.628
13048.599
1936.4718
1928.0333
12996.295
17452.174
30589.78
97794.849
97524.695
30508.235
17392.152
12945.858
1919.7537
1911.626
12897.086
17334.291
30430.128
97264.643
97013.955
30355.285
17278.576
12849.975
1903.6495
1895.8204
12804.324
17224.757
30283.475
96772.095
96538.345
30214.522
17172.879
12760.188
1888.1394
1880.6028
12717.35
17122.681
30148.254
96312.159
96092.969
30084.502
17074.244
12675.9
1873.2089
1865.9563
12635.623
17027.332
30023.227
95880.291
95673.411
29964.045
16981.987
12596.605
1858.8312
1865.9536
12636.633
17028.551
30024.807
95886.559
96099.212
30086.124
17075.496
12676.928
1873.1979
1880.5767
12718.403
17123.955
30149.878
96318.477
96545.008
30216.223
17174.217
12761.284
1888.0971
1895.7606
12805.479
17226.17
30285.284
96779.22
97021.598
30357.24
17280.09
12851.202
1903.57
1911.5227
12898.397
17335.917
30432.252
97272.748
97533.391
30510.524
17393.905
12947.262
1919.6205
1927.8654
12997.804
17454.074
30592.286
97804.181
98085.87
30677.801
17516.68
13050.214
1936.2605
1944.8076
13104.547
17581.796
30767.337
98379.347
98685.554
30861.215
17649.679
13160.992
1953.5091
1962.3656
13219.647
17720.459
30959.742
99005.568
99340.604
31063.327
17794.408
13280.707
1971.379
1980.549
13344.331
17871.739
31172.364
99691.994
100061.37
31287.374
17952.756
13410.738
1989.8756
1999.3564
13480.149
18037.76
31408.89
100450.59
100861.81
31537.565
18127.094
13552.8
2008.9869
2018.7583
13628.992
18221.169
31674.098
101297.44
101760.47
31819.368
18320.415
13709.023
2028.6573
2038.6648
13793.297
18425.409
31974.39
102254.34
102782.99
32140.331
18536.721
13882.211
2048.7482
2058.8615
13976.351
18655.16
32318.59
103351.07
103963.95
32510.921
18781.707
14076.448
2068.9348
2078.8742
14183.863
18918.099
32719.796
104627.91
105351.3
32949.682
19067.398
14300.99
2088.5423
2097.7026
14432.144
19235.22
33208.861
106149.5
107052.84
33509.429
19430.282
14584.162
2105.9005
2112.6239
14769.588
19669.766
33874.441
108106.07
109399.18
34369.275
19987.376
15007.412
2117.2463
2115.8259
15293.448
20401.753
35104.833
111247.38
114171.81
35937.405
20785.703
15527.07
2097.2813
2063.5361
15589.264
20947.92
36369.745
117769.82
120698.28
36619.654
20996.626
15442.817
2043.9811
2061.0444
16366.998
21987.298
38128.925
122455.65
131854.75
39447.16
22124.645
15874.53
2235.4047
2157.9957
15321.615
21069.515
36902.71
121365.2
122440.05
36410.849
20486.95
14748.326
2191.1009
2229.2944
15104.299
20607.743
36228.773
119587.07
115917.74
36097.106
20655.191
15208.205
2285.3639
2318.0645
15065.533
20364.032
35330.642
112735.14
110619.23
34575.669
19977.778
14817.594
2326.8324
2325.4503
14595.832
19671.047
34083.158
109164.7
108009.94
33710.651
19432.79
14416.326
2319.7708
2311.3031
14265.582
19234.705
33399.197
107040.25
106198.13
33129.484
19062.539
14133.793
2301.1024
2289.9349
14015.178
18908.407
32889.396
105445.26
104760.92
32671.055
18767.29
13906.05
2278.2539
2266.338
13804.35
18636.434
32470.209
104132.84
103552.12
32284.228
18514.168
13708.837
2254.3705
2242.4669
13618.75
18399.398
32111.076
103012.05
102507.43
31949.252
18291.245
13533.465
2230.6964
2219.1045
13452.556
18189.081
31797.51
102033.88
101587.8
31654.767
18092.288
13375.587
2207.7149
2196.5418
13302.247
18000.405
31520.128
101166.1
100766.37
31392.833
17912.985
13232.212
2185.5904
2174.8622
13165.238
17829.673
31272.226
100386.53
100024.67
31157.759
17750.148
13101.087
2164.3564
2154.0689
13039.54
17674.097
31048.892
99679.184
99348.785
30945.207
17601.284
12980.422
2143.9954
2134.1293
12923.542
17531.445
30846.298
99032.267
98728.562
30751.833
17464.418
12868.782
2124.4661
2114.9991
12815.957
17399.954
30661.482
98436.794
98156.144
30574.988
17337.96
12765.004
2105.7228
2096.6323
12715.742
17278.199
30492.08
97885.822
97625.116
30412.531
17220.63
12668.154
2087.7247
2078.9961
12622.055
17165.023
30336.138
97373.321
97129.806
30262.684
17111.386
12577.473
2070.4439
2062.0592
12534.195
17059.459
30191.983
96893.99
96665.382
30123.886
17009.313
12492.298
2053.8403
2045.7738
12451.555
16960.68
30058.235
96443.446
96558.418
30085.498
16963.849
12434.146
2057.9791
2066.0417
12475.11
17013.008
30152.495
96782.657
97013.555
30221.84
17063.794
12517.332
2074.2619
2082.645
12560.747
17116.148
30293.723
97251.625
97497.427
30368.332
17170.338
12605.571
2091.1952
2099.915
12651.76
17226.325
30445.847
97751.574
98014.724
30526.511
17284.376
12699.52
2108.8107
2117.8846
12748.842
17344.494
30610.522
98287.537
98570.651
30698.107
17406.92
12799.914
2127.1434
2136.5919
12852.773
17471.72
30789.527
98864.859
99171.116
30885.101
17539.14
12907.604
2146.2336
2156.0743
12964.489
17609.296
30985.082
99490.226
99823.263
31089.844
17682.439
13023.61
2166.1207
2176.3785
13085.099
17758.755
31199.754
100171.38
100535.95
31315.227
17838.514
13149.155
2186.8531
2197.5475
13215.985
17922.002
31436.8
100918.43
101320.69
31564.97
18009.522
13285.806
2208.4665
2219.6114
13358.901
18101.479
31700.471
101744.72
102193.09
31844.04
18198.275
13435.553
2230.9755
2242.5446
13516.133
18300.438
31996.604
102668.83
103175.67
32159.242
18408.505
13601
2254.2895
2266.1606
13690.668
18523.217
32333.258
103718.21
104302.19
32520.319
18645.407
13785.694
2278.0754
2289.9004
13886.874
18776.227
32722.466
104934.88
105625.51
32942.321
18917.158
13995.252
2301.4281
2312.3549
14112.647
19070.686
33183.774
106386.02
107235.21
33453.265
19240.787
14241.979
2322.2085
2330.215
14387.917
19433.457
33758.611
108204.05
109333.25
34108.326
19660.533
14559.182
2335.3462
2335.8489
14769.301
19953.562
34584.059
110738.98
112756.68
35276.572
20301.596
14991.779
2324.3104
2287.7956
15109.479
20537.677
35828.733
115703.28
118963.07
35908.964
20496.748
15018.827
2222.6896
2195.463
15194.72
20854.254
36594.999
120867.72
125425.53
37805.157
21423.927
15517.649
2178.4226
2226.3713
15690.436
21940.424
39175.796
131648.66
2868.3438
14675.321
21396.509
39327.092
135099.39
130061.02
39711.853
22333.295
15881.743
2328.8924
2055.7299
16912.606
22996.487
40071.341
129214.61
124145.92
38203.582
21957.085
16053.125
2162.0983
2151.3352
15255.591
21073.88
37016.387
122334.91
121336.52
36382.847
20645.219
14994.058
2185.5533
2237.0744
15204.593
20695.543
36216.829
118533.52
115228.93
36074.467
20692.832
15251.648
2297.0525
2328.8291
15082.674
20374.345
35302.104
112288.46
110326.45
34565.664
19984.68
14827.566
2336.1237
2333.0633
14602.74
19676.356
34079.01
108967.27
107869.93
33705.499
19435.745
14420.861
2325.8511
2316.1141
14268.417
19236.072
33394.281
106938.09
106121.89
33124.764
19062.8
14135.397
2304.8899
2292.9052
14015.895
18907.906
32884.898
105387.48
104716.34
32666.973
18766.372
13906.192
2280.5837
2268.1714
13804.141
18635.316
32466.558
104097.74
103524.18
32280.932
18512.941
13708.398
2255.8169
2243.6104
13618.179
18398.148
32108.149
102989.58
102489.09
31946.643
18290.014
13532.818
2231.6032
2219.8239
13451.863
18187.875
31795.143
102018.73
101575.21
31652.642
18091.133
13374.878
2208.2859
2196.9953
13301.545
17999.315
31518.229
101155.67
100757.65
31391.153
17911.976
13231.539
2185.9507
2175.1492
13164.602
17828.744
31270.729
100379.03
100018.17
31156.395
17749.281
13100.479
2164.5849
2154.2509
13038.967
17673.297
31047.666
99673.566
99343.879
30944.105
17600.547
12979.885
2144.1394
2134.2423
12923.041
17530.765
30845.299
99027.944
98724.813
30750.92
17463.788
12868.311
2124.5527
2115.065
12815.521
17399.378
30660.67
98433.512
98153.227
30574.26
17337.432
12764.599
2105.7731
2096.669
12715.364
17277.712
30491.415
97883.234
97622.805
30411.93
17220.182
12667.802
2087.7498
2079.0106
12621.725
17164.605
30335.581
97371.238
97127.905
30262.157
17110.992
12577.162
2070.4482
2062.053
12533.902
17059.088
30191.479
96892.264
96663.832
30123.405
17008.963
12492.025
2053.8224
2045.7432
12451.309
16960.365
30057.81
96442.158
95880.467
30022.972
17027.331
12635.666
1865.9064
1873.1725
12675.949
17074.277
30084.511
96093.694
96313.273
30148.41
17122.901
12717.545
1880.5744
1888.1142
12760.345
17173.068
30214.799
96539.724
96773.564
30283.809
17225.065
12804.575
1895.7979
1903.6277
12850.179
17278.83
30355.648
97015.446
97266.034
30430.515
17334.627
12897.357
1911.6069
1919.7361
12946.09
17392.436
30508.614
97526.01
97796.063
30590.182
17452.525
12996.578
1928.0193
1936.4616
13048.854
17514.941
30675.483
98076.914
98369.441
30764.787
17579.933
13103.103
1945.0665
1953.8365
13159.4
17647.605
30858.394
98674.593
98993.379
30956.632
17718.207
13217.932
1962.7761
1971.8886
13278.834
17791.916
31059.86
99327.013
99676.852
31168.556
17869.02
13342.312
1981.179
1990.6511
13408.55
17949.771
31283.157
100044.38
100431.42
31404.231
18034.487
13477.781
2000.3071
2010.1481
13550.273
18123.529
31532.394
100840.09
101272.93
31668.44
18217.3
13626.302
2020.1722
2030.3732
13706.222
18316.294
31813.228
101732.76
102222.98
31967.773
18421.02
13790.39
2040.7354
2051.2352
13879.306
18532.172
32133.297
102747.54
103310.99
32311.256
18650.514
13973.516
2061.8286
2072.4518
14073.923
18777.244
32503.552
103918.65
104576.77
32713.021
18914.185
14181.918
2083.0045
2093.3234
14300.002
19064.601
32944.387
105293.64
106085.1
33205.956
19233.838
14432.221
2103.1115
2111.8093
14584.887
19429.972
33508.747
106980.78
108021.31
33873.314
19668.54
14769.359
2118.7498
2122.9083
15002.29
19979.074
34355.679
109292.04
111110.46
35047.504
20370.717
15276.163
2119.4503
2099.2646
15514.184
20737.256
35768.615
113894.07
117111.7
36332.942
21007.334
15677.775
2066.0101
2043.9853
15735.838
21177.533
36696.068
120403.89
124670
37943.834
21730.559
16031.163
2064.2694
2239.0573
15617.864
22019.534
39476.617
132611.84
126817.55
37983.523
21452.08
15484.657
2188.9329
2202.1419
15585.48
21167.885
36871.222
119863.33
118458.95
35803.155
20472.917
14987.33
2232.0068
2300.2297
15100.168
20524.593
35826.932
115555.43
112612.65
35281.657
20299.984
14992.043
2336.719
2348.1557
14771.967
19952.725
34576.379
110587.87
109197.1
34088.899
19653.773
14558.253
2346.3488
2339.665
14384.581
19424.375
33739.174
108088.05
107135.56
33434.477
19231.038
14237.471
2330.1644
2318.9692
14107.652
19061.013
33166.125
106300
105551.12
32926.044
18907.911
13990.134
2306.8814
2294.3755
13881.866
18767.615
32707.707
104870.38
104246.09
32507.081
18637.508
13780.917
2281.7373
2269.1539
13686.183
18516.029
32321.434
103669.21
103132.66
32148.682
18401.992
13596.826
2256.7326
2244.5371
13512.271
18294.546
31987.183
102630.91
102159.53
31835.618
18192.947
13431.989
2232.5968
2220.9282
13355.605
18096.645
31692.918
101714.92
101294.27
31558.219
18005.134
13282.757
2209.532
2198.405
13213.171
17918.013
31430.73
100895
100515
31309.78
17834.887
13146.558
2187.5386
2176.9243
13082.693
17755.441
31194.827
100152.59
99806.365
31085.405
17679.411
13021.379
2166.5515
2156.4082
12962.422
17606.522
30981.069
99475.021
99157.406
30881.448
17536.593
12905.687
2146.4864
2136.7779
12850.988
17469.374
30786.209
98852.487
98559.367
30695.067
17404.749
12798.244
2127.2758
2117.972
12747.276
17342.478
30607.727
98277.199
98005.238
30523.942
17282.504
12698.055
2108.8615
2099.935
12650.388
17224.588
30443.485
97742.861
97489.378
30366.156
17168.72
12604.286
2091.1913
2082.6212
12559.546
17114.649
30291.732
97244.202
97006.673
30220.003
17062.405
12516.22
2074.2239
2065.9902
12474.09
17011.742
30150.849
96776.327
96552.666
30084.091
16962.739
12433.253
2057.9198
2057.9173
12434.492
16964.313
30086.408
96560.447
96783.716
30152.983
17013.327
12475.351
2065.997
2074.2276
12517.39
17063.882
30222.078
97013.938
97251.647
30293.83
17116.249
12560.819
2082.6184
2091.1696
12605.559
17170.336
30368.385
97497.285
97751.325
30445.89
17226.388
12651.801
2099.8912
2108.787
12699.514
17284.38
30526.543
98014.355
98287.004
30610.547
17344.562
12748.888
2117.8631
2127.1233
12799.945
17406.969
30698.165
98569.951
98863.987
30789.608
17471.837
12852.857
2136.5747
2146.2197
12907.683
17539.246
30885.16
99169.855
99488.53
30985.155
17609.462
12964.617
2156.0647
2166.1147
13023.76
17682.627
31089.912
99821.106
100168.66
31199.825
17759
13085.297
2176.3768
2186.8568
13149.395
17838.803
31315.288
100532.52
100914.11
31436.813
17922.333
13216.268
2197.5598
2208.4929
13286.153
18009.92
31564.957
101315.1
101737.56
31700.378
18101.926
13359.304
2219.66
2231.0599
13436.039
18198.795
31843.81
102183.75
102656.6
31996.188
18300.997
13516.684
2242.6829
2254.5113
13601.666
18409.143
32158.544
103159.51
103696.67
32332.167
18523.904
13691.449
2266.5087
2278.6132
13786.699
18646.228
32518.693
104273.27
104895.92
32720.213
18777.254
13888.211
2290.7157
2302.64
13997.257
18918.724
32939.444
105573.21
106316.64
33180.763
19073.399
14115.867
2314.114
2324.6903
14247.492
19245.994
33451.503
107145.19
108092.09
33761.864
19443.578
14397.403
2333.5974
2339.7553
14574.786
19679.395
34127.307
109204.94
110591.37
34614.318
19982.093
14792.305
2341.3489
2331.2792
15027.928
20351.717
35337.797
112592
115616.17
36046.261
20614.405
15151.661
2294.0272
2226.312
15028.83
20499.282
35913.448
118761.39
120659.87
36597.711
20808.877
15111.745
2195.6753
2178.5511
15726.925
21588.274
37868.034
124043.88
1017.9987
607.84732
820.478
2057.856
15951.495
21624.427
37783.664
124567.62
123431.77
37116.25
21050.986
15176.434
2163.3864
133009.52
39226.811
21527.325
14886.274
2877.7525
3193.9605
15200.581
21827.877
39446.676
131675.95
132470.04
39999.473
22037.385
15285.566
3204.8699
2502.9786
15350.081
21761.642
38912.519
128632.61
1471.7663
1267.5353
677.43319
840.65304
180.65597
191.01652
189.48447
180.65567
179.70237
184.54845
184.60309
179.34962
96444.258
30058.245
16960.748
12451.613
2045.932
2053.9952
12492.283
17009.274
30123.859
96665.695
96893.949
30191.867
17059.465
12534.239
2062.2183
2070.6114
12577.423
17111.262
30262.49
97129.401
97372.525
30335.863
17164.93
12622.043
2079.179
2087.925
12668.056
17220.417
30412.16
97623.926
97884.214
30491.642
17278
12715.667
2096.8558
2105.9723
12764.86
17337.664
30574.465
98154.105
98434.339
30660.877
17399.649
12815.818
2115.2779
2124.7792
12868.58
17464.016
30751.108
98725.569
99028.678
30845.494
17531.025
12923.337
2134.4837
2144.3968
12980.178
17600.797
30944.316
99344.623
99674.357
31047.907
17673.576
13039.288
2154.5266
2164.8819
13100.816
17749.571
31156.66
100018.92
100379.74
31271.044
17829.078
13164.974
2175.4699
2186.2969
13231.975
17912.378
31391.547
100758.3
101156.3
31518.76
17999.815
13302.062
2197.3689
2208.6889
13375.519
18091.782
31653.346
101575.82
102019.23
31796.077
18188.699
13452.642
2220.2544
2232.0575
13533.819
18291.106
31947.852
102489.39
102989.74
32109.786
18399.581
13619.443
2244.0772
2256.2757
13710.053
18514.877
32283.132
103524.29
104098.07
32469.561
18637.889
13806.271
2268.5867
2280.8979
13909.017
18769.895
32671.152
104717.37
105390.47
32890.837
18912.67
14019.575
2293.0225
2304.6614
14140.145
19069.222
33133.24
106128.96
106953.12
33406.119
19244.281
14274.121
2315.3127
2324.1515
14426.729
19445.177
33720.817
107898.76
109015.13
34097.634
19684.997
14606.333
2330.0907
2331.2692
14821.196
19985.03
34587.33
110405.3
112438.27
35268.026
20325.985
15038.734
2319.7767
2283.6305
15139.98
20539.281
35800.057
115374.73
118325.96
35863.888
20501.572
15044.358
2223.7889
2192.8189
15271.807
20840.029
36484.4
120090.19
123113.06
36989.077
20988.092
15144.687
2176.4728
16925.412
23117.501
40519.381
130532.51
127761.77
40788.369
23481.432
17342.583
2096.5209
2389.8768
16609.67
23023.323
40405.252
126983.64
127698.37
38630.11
21676.503
15278.423
2536.4326
2192.9573
15959.309
21921.202
38157.034
123484.04
123113.98
36987.791
20986.446
15142.991
2175.4091
2191.9597
15270.053
20838.553
36483.487
120091.44
118326.53
35862.978
20500.249
15042.848
2223.0717
2283.001
15138.641
20537.894
35798.666
115374.33
112436.64
35267.076
20324.855
15037.589
2319.2284
2330.7851
14820.09
19983.874
34586.121
110403.23
109012.79
34096.314
19683.81
14605.238
2329.6613
2323.7696
14425.678
19444.027
33719.54
107896.14
106950.17
33404.842
19243.163
14273.108
2314.9692
2304.3469
14139.153
19068.108
33131.927
106125.75
105387.08
32889.513
18911.564
14018.597
2292.727
2280.6162
13908.045
18768.786
32669.807
104713.89
104094.58
32468.19
18636.772
13805.298
2268.3137
2256.0095
13709.082
18513.76
32281.764
103520.84
102986.37
32108.42
18398.467
13618.473
2243.8148
2231.7985
13532.861
18290.006
31946.521
102486.16
102016.11
31794.762
18187.612
13451.696
2219.9979
2208.436
13374.59
18090.716
31652.078
101572.8
101153.42
31517.545
17998.778
13301.151
2197.1205
2186.0545
13231.097
17911.382
31390.401
100755.44
100376.91
31269.94
17828.112
13164.12
2175.2346
2164.6557
13099.983
17748.635
31155.587
100016.08
99671.429
31046.872
17672.666
13038.479
2154.3104
2144.1903
12979.394
17599.91
30943.297
99341.663
99025.658
30844.511
17530.168
12922.58
2134.2872
2124.594
12867.846
17463.19
30750.172
98722.475
98431.105
30659.935
17398.836
12815.1
2115.1039
2105.8102
12764.161
17336.875
30573.554
98150.732
97880.658
30490.718
17277.221
12714.983
2096.7063
2087.786
12667.386
17219.654
30411.262
97620.197
97368.662
30334.938
17164.163
12621.382
2079.0485
2070.4867
12576.768
17110.504
30261.561
97125.379
96889.81
30190.926
17058.705
12533.594
2062.0987
2053.8752
12491.642
17008.51
30122.885
96661.413
96439.69
30057.344
16960.038
12451.031
2045.8183
2037.9046
12411.463
16912.919
29993.941
96224.179
2058.0483
12433.755
16963.32
30084.873
96557.034
96780.028
30151.673
17012.435
12474.684
2066.1279
2074.364
12516.708
17062.961
30220.731
97010.025
97247.222
30292.404
17115.261
12560.093
2082.7704
2091.3478
12604.757
17169.233
30366.775
97492.109
97745.312
30444.076
17225.156
12650.911
2100.1022
2109.0389
12698.521
17282.995
30524.484
98007.384
98278.998
30608.217
17343.007
12747.782
2118.1634
2127.48
12798.711
17405.22
30695.507
98560.826
98853.621
30786.643
17469.885
12851.493
2136.9975
2146.7228
12906.173
17537.069
30881.831
99158.254
99475.634
30981.434
17607.028
12962.94
2156.6605
2166.8195
13021.9
17679.908
31085.763
99806.702
100152.71
31195.179
17755.954
13083.23
2177.2087
2187.8372
13147.102
17835.401
31310.121
100514.93
100894.77
31431.068
17918.539
13213.729
2198.7149
2209.8525
13283.339
18005.678
31558.561
101294.03
101714.75
31693.306
18097.194
13356.186
2221.2586
2232.935
13432.58
18193.505
31835.988
102159.35
102630.82
31987.566
18295.087
13512.847
2244.8786
2257.077
13597.413
18402.534
32149.035
103132.67
103669.38
32321.761
18516.526
13686.732
2269.5006
2282.0876
13781.469
18638.003
32507.381
104246.4
104870.77
32707.979
18768.058
13882.377
2294.7306
2307.2465
13990.645
18908.342
32926.242
105551.53
106300.44
33166.233
19061.366
14108.114
2319.3495
2330.5709
14237.926
19231.36
33434.485
107135.89
108088.17
33739.063
19424.621
14384.994
2340.112
2346.8651
14558.672
19654.014
34088.837
109196.97
110587.24
34576.085
19952.812
14772.309
2348.7749
2337.4851
14992.265
20299.778
35280.535
112611.15
115552.54
35825.504
20524.159
15100.333
2301.2035
2233.3264
14987.788
20473.433
35803.425
118455.35
119851.38
36870.469
21168.743
15586.864
2203.6571
2190.8121
15487.548
21455.304
37987.722
126793.37
132588.63
39503.284
22023.836
15618.418
2241.2238
2066.0972
16031.823
21732.618
37948.381
124656.44
122326.71
37020.786
21074.876
15254.309
2153.311
2159.5615
15323.129
21069.636
36897.921
121321.55
122430.76
38128.795
21985.021
16365.422
2062.4765
2179.8185
15724.753
21584.727
37866.439
124022.56
125416.02
37799.683
21417.329
15513.546
2179.1391
2058.4538
15946.692
21617.624
37778.053
124570.05
123423.81
37109.503
21046.43
15173.65
2163.3709
2184.4538
15396.053
20957.488
36618.15
119769.02
118046.4
35838.72
20513.422
15064.169
2215.6681
2275.5744
15121.709
20509.963
35744.302
115280.02
112386.99
35261.654
20319.361
15031.41
2314.7395
2327.7861
14819.262
19985.183
34590.308
110381.7
109005.76
34101.228
19686.663
14606.283
2327.4724
2322.0744
14427.258
19447.058
33724.191
107896.16
106954.67
33408.778
19245.804
14274.611
2313.569
2303.1403
14140.42
19070.297
33135.282
106133.42
105396.7
32892.475
18913.407
14019.664
2291.6727
2279.6956
13908.983
18770.403
32672.506
104724.38
104105.18
32470.687
18638.237
13806.158
2267.5146
2255.3206
13709.887
18515.101
32284.054
103531.06
102995.93
32110.53
18399.708
13619.237
2243.2254
2231.2981
13533.587
18291.156
31948.446
102494.95
102024.08
31796.524
18188.678
13452.384
2219.5759
2208.0814
13375.237
18091.697
31653.669
101579.98
101159.8
31518.988
17999.68
13301.757
2196.8245
2185.8073
13231.653
17912.193
31391.667
100761.2
100382.08
31271.086
17828.853
13164.636
2175.0291
2164.4859
13100.465
17749.317
31156.639
100020.68
99675.549
31047.808
17673.287
13038.926
2154.1707
2144.0762
12979.809
17600.481
30944.15
99345.332
99028.895
30845.288
17530.694
12922.965
2134.1957
2124.5212
12868.197
17463.662
30750.848
98725.289
98433.601
30660.55
17399.268
12815.424
2115.0474
2105.7662
12764.46
17337.265
30574.089
98153.015
97882.756
30491.238
17277.589
12715.266
2096.6726
2087.761
12667.653
17219.995
30411.732
97622.104
97370.354
30335.369
17164.482
12621.633
2079.0297
2070.4729
12577.005
17110.799
30261.952
97126.88
96891.165
30191.277
17058.974
12533.816
2062.0866
2053.8616
12491.847
17008.752
30123.187
96662.714
96441.12
30057.557
16960.224
12451.198
2045.7975
2037.8838
12411.623
16913.108
29994.23
96225.878
2045.8748
12451.723
16960.882
30058.472
96445.304
96666.802
30124.128
17009.53
12492.488
2053.9469
2062.1724
12534.388
17059.659
30192.198
96895.176
97130.838
30262.876
17111.573
12577.66
2070.5652
2079.1265
12622.241
17165.198
30336.315
97374.25
97625.907
30412.691
17220.795
12668.333
2087.865
2096.7842
12715.916
17278.346
30492.208
97886.469
98156.677
30575.088
17338.097
12765.173
2105.887
2115.1768
12816.126
17400.087
30661.583
98437.211
98728.87
30751.922
17464.546
12868.95
2124.6585
2134.3396
12923.71
17531.564
30846.37
99032.431
99348.759
30945.272
17601.407
12980.599
2144.2275
2154.3276
13039.736
17674.234
31048.968
99678.887
100024.07
31157.856
17750.315
13101.314
2164.6479
2175.1947
13165.51
17829.883
31272.356
100385.54
100764.73
31393.002
17913.263
13232.556
2185.9751
2196.9937
13302.697
18000.792
31520.358
101163.44
101583.68
31655.112
18092.842
13376.195
2208.2512
2219.7453
13453.386
18189.881
31798.025
102027.81
102498.71
31950.011
18292.389
13534.607
2231.4648
2243.3905
13620.313
18401.005
32112.138
102999.68
103534.77
32285.744
18516.438
13710.988
2255.4832
2267.6769
13807.323
18639.649
32472.416
104108.75
104727.69
32674.301
18771.861
13910.182
2279.8579
2291.8382
14020.949
18914.967
32894.312
105399.57
106135.71
33137.169
19071.93
14141.771
2303.3097
2313.7454
14276.103
19247.603
33410.743
106956.14
107896.72
33726.37
19449.076
14428.923
2322.2572
2327.6552
14608.216
19689.05
34103.834
109005.6
110381.56
34593.748
19987.943
14821.421
2327.9488
2314.8698
15033.735
20322.33
35264.907
112386.71
115281.77
35748.3
20513.24
15124.029
2275.611
2215.7737
15066.686
20517.135
35844.169
118047.13
119770.76
36623.933
20961.368
15398.477
2184.5183
2036.1293
15842.789
21215.535
36656.49
119644.33
116795.21
35892.349
20792.808
15559.701
2040.4482
2079.2421
15415.203
20600.836
35530.511
113878.25
111235.65
34977.525
20300.806
15215.652
2102.6693
2108.9619
14969.875
19945.214
34327.359
109456.07
108199.12
33871.374
19655.364
14753.952
2107.0828
2102.248
14579.738
19428.731
33520.135
107143.84
106223.66
33222.268
19238.465
14432.57
2095.3864
2087.1272
14302.883
19071.465
32961.242
105408.66
104671.83
32728.744
18921.545
14185.78
2078.0571
2068.5098
14077.989
18784.284
32517.526
103997.56
103376.99
32323.392
18656.912
13977.42
2058.6871
2048.7286
13882.919
18537.867
32143.763
102803.21
102270.31
31976.844
18426.074
13793.692
2038.735
2028.7764
13709.231
18320.783
31821.103
101773.28
101307.77
31675.317
18221.3
13629.041
2018.8995
2009.1348
13552.773
18127.094
31538.386
100870.19
100457.42
31409.434
18037.665
13480.06
1999.502
1990.0145
13410.637
17952.623
31287.732
100066.9
99696.471
31172.586
17871.591
13344.224
1980.6792
1971.5004
13280.606
17794.257
31063.443
99344.154
99008.411
30959.809
17720.338
13219.575
1962.4788
1953.6147
13160.928
17649.56
30861.233
98687.819
98381.117
30767.328
17581.726
13104.527
1944.9066
1936.3532
13050.193
17516.607
30677.785
98087.229
97805.255
30592.282
17454.071
12997.837
1927.9528
1919.7017
12947.273
17393.873
30510.52
97534.248
97273.466
30432.265
17335.962
12898.472
1911.5995
1903.6419
12851.229
17280.08
30357.261
97022.242
96779.806
30285.297
17226.236
12805.57
1895.8308
1888.1631
12761.286
17174.173
30216.183
96545.479
96318.66
30149.701
17123.933
12718.432
1880.6382
1873.2495
12676.763
17075.225
30085.671
96098.853
95885.562
30023.892
17028.12
12636.365
1865.9903
1866.0686
12636.202
17027.974
30023.934
95884.624
96096.942
30085.334
17074.967
12676.537
1873.331
1880.7271
12717.997
17123.398
30149.061
96315.937
96542.004
30215.315
17173.591
12760.832
1888.2692
1895.9567
12804.966
17225.455
30284.233
96775.593
97017.259
30356.023
17279.272
12850.616
1903.7944
1911.7822
12897.735
17334.984
30430.852
97267.645
97527.468
30508.933
17392.846
12946.511
1919.9222
1928.2155
12996.961
17452.878
30590.483
97797.398
98078.214
30675.774
17515.338
13049.273
1936.6679
1945.2808
13103.502
17580.3
30765.082
98370.747
98675.985
30858.707
17648.016
13159.834
1954.0581
1963.0029
13218.374
17718.62
30956.987
98994.939
99328.768
31060.309
17792.383
13279.314
1972.1196
1981.4105
13342.824
17869.53
31169.067
99678.858
100046.81
31283.787
17950.357
13409.121
1990.8781
2000.5227
13478.433
18035.18
31405.012
100434.43
100843.86
31533.41
18124.348
13551.007
2010.3419
2020.3299
13627.16
18218.292
31669.696
101277.57
101738.59
31814.802
18317.473
13707.209
2030.4752
2040.7571
13791.573
18422.483
31969.757
102230.4
102757.1
32135.797
18533.92
13880.667
2051.1393
2061.5692
13975.095
18652.621
32314.343
103323.48
103935.29
32507.264
18779.624
14075.621
2071.9675
2082.2236
14183.589
18916.68
32717.187
104599.27
105324.61
32948.524
19066.702
14301.231
2092.1695
2101.5206
14432.391
19234.778
33209.199
106127.97
107039.81
33509.06
19428.142
14582.822
2109.7617
2116.3772
14763.662
19661.905
33867.807
108099.34
109395.16
34339.609
19964.338
14991.048
2120.5685
2117.7591
15257.236
20341.782
35004.528
111256.99
114061.27
35668.519
20704.733
15496.589
2100.535
2071.5134
15659.664
21015.53
36427.332
117614.88
121238.05
36652.624
21053.622
15560.281
2051.7181
2074.3401
15966.589
21636.924
37767.968
124290.02
131393.91
39250.691
22030.128
15782.496