/*--------------------------------*- C++ -*----------------------------------*\
  =========                 |
  \\      /  F ield         | OpenFOAM: The Open Source CFD Toolbox
   \\    /   O peration     | Website:  https://openfoam.org
    \\  /    A nd           | Version:  7
     \\/     M anipulation  |
\*---------------------------------------------------------------------------*/
FoamFile
{
    version     2.0;
    format      ascii;
    class       volScalarField;
    location    "380";
    object      T;
}
// * * * * * * * * * * * * * * * * * * * * * * * * * * * * * * * * * * * * * //

dimensions      [0 0 0 1 0 0 0];

internalField   nonuniform List<scalar> 
24789
(
300.15677
300.14732
300.14033
300.13456
300.10535
300.10808
300.13851
300.14452
300.15175
300.16153
300.16659
300.15646
300.14894
300.14268
300.1109
300.11377
300.14704
300.15358
300.1614
300.17192
300.17757
300.16661
300.15845
300.1516
300.1167
300.11968
300.15638
300.16357
300.1721
300.18354
300.18989
300.17792
300.16897
300.16141
300.12271
300.12579
300.16668
300.17465
300.18406
300.1966
300.20373
300.19054
300.18063
300.1722
300.1289
300.13205
300.178
300.18693
300.1974
300.2113
300.2194
300.20471
300.19361
300.18412
300.13522
300.13842
300.19059
300.2007
300.21249
300.22807
300.2374
300.22082
300.20825
300.19745
300.14163
300.14484
300.20474
300.21631
300.22977
300.24748
300.25843
300.23942
300.22497
300.21252
300.14803
300.15117
300.22084
300.23428
300.24986
300.27033
300.28334
300.26119
300.24433
300.22976
300.15422
300.15712
300.23932
300.25516
300.27348
300.29754
300.31306
300.28683
300.26684
300.24955
300.15979
300.16215
300.26045
300.27938
300.30125
300.32994
300.3482
300.31673
300.29274
300.27196
300.16404
300.16528
300.28395
300.3068
300.33316
300.36769
300.38815
300.35025
300.3213
300.29617
300.16562
300.16471
300.30813
300.33573
300.36748
300.40896
300.42908
300.38389
300.34922
300.31903
300.16205
300.1569
300.32758
300.36038
300.39796
300.44678
300.45953
300.40753
300.36727
300.33199
300.14838
300.13491
300.3293
300.36659
300.4089
300.46294
300.44883
300.39547
300.35277
300.31454
300.11361
300.08352
300.28593
300.32331
300.36273
300.40818
300.32981
300.30539
300.27426
300.24074
300.04934
299.97083
300.10773
300.13149
300.15143
300.15313
299.76916
299.77307
299.77183
299.77028
299.7685
299.65098
299.62858
299.62581
299.62593
299.62928
299.657
299.6475
299.64277
299.64005
299.62839
299.59152
299.5538
299.54807
299.54573
299.54589
299.55525
299.54714
299.55165
299.55919
299.58642
299.59454
299.55972
299.55473
299.55513
299.57034
299.6465
299.62543
299.62073
299.62254
299.63575
299.66746
299.6487
299.64753
299.64998
299.65674
299.89122
299.88357
299.87132
299.85941
299.79143
299.96927
300.14744
300.17409
300.19738
300.2084
300.36322
300.33532
300.30298
300.26916
300.04713
300.08017
300.31499
300.35231
300.39151
300.43609
300.47659
300.42553
300.38346
300.34523
300.11042
300.13262
300.36187
300.39951
300.44175
300.49501
300.49139
300.44171
300.40144
300.36553
300.14658
300.15542
300.36145
300.39527
300.43344
300.48168
300.46637
300.42045
300.38455
300.35295
300.16094
300.16394
300.34181
300.37111
300.40451
300.4473
300.42684
300.38717
300.35627
300.32921
300.16509
300.1649
300.31602
300.34094
300.36945
300.40612
300.38587
300.35201
300.32572
300.30278
300.16375
300.1619
300.28985
300.31096
300.3352
300.36645
300.34813
300.31926
300.29688
300.27742
300.15957
300.1569
300.26563
300.28358
300.30425
300.33095
300.31499
300.29025
300.2711
300.25449
300.154
300.15096
300.24404
300.25943
300.2772
300.30018
300.28649
300.26508
300.24855
300.23424
300.14782
300.14463
300.22506
300.23838
300.2538
300.27379
300.26204
300.24332
300.22889
300.21645
300.14141
300.1382
300.20835
300.21999
300.23353
300.25111
300.24094
300.22438
300.21165
300.20073
300.135
300.13183
300.19353
300.2038
300.21579
300.23143
300.22255
300.20774
300.19641
300.18673
300.12868
300.12557
300.18029
300.18942
300.20015
300.2142
300.20636
300.19299
300.18281
300.17417
300.1225
300.11947
300.16836
300.17655
300.18623
300.19896
300.19203
300.17988
300.17065
300.16287
300.11649
300.11357
300.15767
300.16509
300.1739
300.18552
300.17942
300.16827
300.15983
300.15275
300.1107
300.1079
300.14807
300.15485
300.16296
300.17368
300.16835
300.15801
300.15021
300.14369
300.10517
300.10726
300.14699
300.15369
300.16171
300.17234
300.17795
300.16691
300.15855
300.15155
300.10998
300.11278
300.15636
300.16369
300.1724
300.1839
300.19025
300.17823
300.16911
300.16143
300.11563
300.11853
300.16677
300.17486
300.18442
300.197
300.20421
300.19101
300.18096
300.17243
300.12147
300.12446
300.1784
300.18741
300.19799
300.21187
300.22001
300.20539
300.19422
300.18468
300.12748
300.13052
300.19131
300.20142
300.21324
300.22868
300.23796
300.22162
300.20907
300.19832
300.13359
300.13668
300.20575
300.21721
300.23054
300.2479
300.25857
300.2401
300.22589
300.21364
300.13978
300.14286
300.22204
300.23515
300.25034
300.27006
300.28247
300.26135
300.24507
300.23099
300.14592
300.14891
300.24054
300.25569
300.27318
300.29585
300.3103
300.2859
300.26706
300.25072
300.1518
300.15453
300.26154
300.2792
300.29954
300.32586
300.34256
300.31412
300.29212
300.27299
300.15703
300.15917
300.28501
300.30576
300.32959
300.36035
300.37915
300.34585
300.32002
300.2975
300.16082
300.16178
300.31024
300.33469
300.36268
300.39871
300.41865
300.37971
300.34941
300.32289
300.16177
300.16044
300.3349
300.36359
300.3963
300.43826
300.45633
300.4114
300.3763
300.3454
300.15724
300.15151
300.35321
300.38623
300.42346
300.47038
300.47906
300.4308
300.39158
300.35657
300.14243
300.12841
300.35224
300.38886
300.42989
300.48161
300.4615
300.41263
300.37202
300.33496
300.10607
300.07453
300.30303
300.339
300.37638
300.41855
300.34326
300.31811
300.28855
300.25628
300.0392
299.96772
300.14437
300.17016
300.19123
300.19588
299.88305
299.8771
299.86399
299.85249
299.79304
299.60695
299.52332
299.51329
299.50961
299.52016
299.75385
299.72494
299.7116
299.70423
299.65453
299.66739
299.74687
299.75784
299.77221
299.79597
299.5415
299.53212
299.53695
299.54777
299.61001
299.69767
299.82891
299.85195
299.88142
299.9225
299.73045
299.69363
299.67959
299.67379
299.6413
299.60103
299.5141
299.50246
299.49677
299.5025
299.84476
299.84499
299.83773
299.83092
299.80064
299.98569
300.13751
300.16284
300.18395
300.18723
300.34676
300.31706
300.28472
300.25057
300.05214
300.08375
300.29135
300.32937
300.37025
300.41929
300.45776
300.40062
300.35668
300.31813
300.11426
300.13582
300.33072
300.36764
300.40995
300.46414
300.45742
300.40597
300.36637
300.33186
300.14935
300.15814
300.32671
300.35854
300.39515
300.44301
300.42464
300.3807
300.34713
300.31799
300.16354
300.16639
300.30733
300.33389
300.3645
300.40458
300.38433
300.34783
300.31997
300.29578
300.16737
300.16701
300.28405
300.30607
300.33144
300.36466
300.34604
300.31574
300.29258
300.2725
300.16569
300.16369
300.26138
300.27973
300.3009
300.32861
300.31247
300.28705
300.26763
300.25079
300.16122
300.15843
300.24081
300.25629
300.27417
300.29756
300.28387
300.26224
300.24573
300.23144
300.15543
300.15228
300.22264
300.23588
300.25119
300.27124
300.25964
300.24095
300.2267
300.2144
300.14906
300.14581
300.20668
300.21814
300.23145
300.24892
300.23902
300.22262
300.21014
300.19941
300.14254
300.13929
300.19257
300.20263
300.21436
300.2298
300.22123
300.20663
300.19557
300.1861
300.13605
300.13284
300.17997
300.1889
300.19936
300.21319
300.20566
300.1925
300.18258
300.17414
300.12967
300.12654
300.16858
300.17658
300.18601
300.19854
300.19183
300.17986
300.17087
300.16328
300.12345
300.12041
300.15823
300.16545
300.17403
300.18548
300.17951
300.16852
300.16032
300.15343
300.11742
300.11449
300.14884
300.15543
300.1633
300.17386
300.16852
300.15835
300.15077
300.14446
300.11162
300.10883
300.14029
300.14635
300.15365
300.16347
300.16029
300.15059
300.14341
300.13746
300.10734
300.11009
300.14154
300.14775
300.1552
300.16526
300.17051
300.16006
300.15231
300.14583
300.1129
300.11578
300.15031
300.15709
300.16518
300.17606
300.18194
300.17059
300.16213
300.15501
300.1187
300.12167
300.15994
300.16742
300.1763
300.18817
300.19477
300.18233
300.173
300.16511
300.12469
300.12773
300.17052
300.17886
300.18868
300.20176
300.20919
300.19541
300.18504
300.1762
300.1308
300.1339
300.18219
300.19157
300.20256
300.21712
300.22561
300.21017
300.1985
300.18851
300.13701
300.14013
300.1952
300.20587
300.21831
300.23474
300.2446
300.22705
300.21374
300.20231
300.14324
300.14632
300.20988
300.22217
300.23646
300.25527
300.26689
300.24663
300.23124
300.21797
300.14934
300.15227
300.22662
300.241
300.25765
300.27956
300.29339
300.2696
300.25151
300.23589
300.15504
300.1576
300.24579
300.26283
300.28255
300.30847
300.32488
300.29654
300.27497
300.25632
300.15982
300.16158
300.26744
300.28789
300.31153
300.34259
300.3615
300.32743
300.30147
300.279
300.1627
300.16295
300.29074
300.31543
300.34392
300.38129
300.40137
300.36049
300.32928
300.30219
300.16198
300.15929
300.31253
300.34212
300.37616
300.42064
300.43742
300.38942
300.35258
300.32047
300.15417
300.14574
300.32423
300.35867
300.39806
300.44912
300.45146
300.39847
300.35717
300.32087
300.13249
300.11161
300.30537
300.34244
300.384
300.43629
300.39425
300.34949
300.31127
300.27528
300.08164
300.04686
300.22897
300.26087
300.29065
300.31505
300.14448
300.14327
300.12476
300.10223
299.96976
299.76553
299.769
299.77052
299.77206
299.76889
299.53602
299.5313
299.53612
299.54611
299.61802
299.64067
299.66437
299.66881
299.67695
299.69138
299.60837
299.60457
299.60353
299.60619
299.61376
299.58198
299.52764
299.51407
299.50289
299.51085
299.61385
299.53043
299.50708
299.48511
299.46247
299.77602
299.7662
299.74766
299.73157
299.66076
299.68282
299.71044
299.71314
299.71278
299.69677
299.81945
299.80288
299.78575
299.77136
299.68519
299.6882
299.77765
299.79246
299.81284
299.84986
299.65814
299.63307
299.62703
299.62787
299.63354
299.62286
299.55419
299.54462
299.53964
299.5428
299.83289
299.83769
299.83403
299.82895
299.80342
299.984
300.12505
300.14808
300.1663
300.16553
300.32285
300.29914
300.2699
300.23838
300.05334
300.0852
300.2801
300.31541
300.35271
300.39588
300.43389
300.38385
300.34371
300.30779
300.11545
300.13695
300.32187
300.35661
300.396
300.44631
300.44276
300.39465
300.35736
300.32463
300.15041
300.15908
300.3209
300.35128
300.38599
300.43096
300.41493
300.37336
300.34136
300.3134
300.16441
300.16721
300.30374
300.32935
300.3587
300.39687
300.37828
300.34331
300.31644
300.29302
300.16815
300.16775
300.28196
300.30337
300.32794
300.35995
300.34242
300.31308
300.29056
300.27096
300.1664
300.16436
300.26028
300.27826
300.29893
300.32587
300.31044
300.28562
300.26659
300.25005
300.16186
300.15903
300.24035
300.2556
300.27317
300.29609
300.28284
300.26158
300.2453
300.23119
300.15598
300.15281
300.22257
300.23567
300.25079
300.27057
300.25925
300.24078
300.22666
300.21446
300.14956
300.14628
300.20683
300.21823
300.23143
300.24874
300.239
300.22272
300.21032
300.19964
300.14298
300.1397
300.19285
300.20288
300.21455
300.22991
300.22142
300.20689
300.19586
300.18641
300.13644
300.13321
300.18029
300.18921
300.19965
300.21344
300.20595
300.19283
300.18291
300.17448
300.13001
300.12685
300.16892
300.17692
300.18635
300.19887
300.19217
300.1802
300.17121
300.16361
300.12374
300.12068
300.15855
300.16579
300.17437
300.18582
300.17985
300.16886
300.16064
300.15374
300.11767
300.11473
300.14914
300.15574
300.16363
300.17419
300.16886
300.15867
300.15108
300.14475
300.11184
300.10903
300.14056
300.14664
300.15395
300.16379
300.17339
300.1627
300.15462
300.14786
300.10782
300.11059
300.1525
300.15956
300.16798
300.1791
300.18516
300.17357
300.16479
300.1574
300.11344
300.11634
300.16255
300.17031
300.17951
300.19162
300.19853
300.18583
300.17618
300.16801
300.11929
300.12229
300.17379
300.1824
300.19256
300.20589
300.21372
300.1997
300.189
300.17989
300.12534
300.12843
300.18631
300.19596
300.20727
300.22204
300.23093
300.21532
300.20335
300.1931
300.13156
300.13471
300.20029
300.21119
300.22389
300.24044
300.25064
300.23306
300.21954
300.20792
300.13789
300.14108
300.21602
300.22845
300.24287
300.26159
300.2734
300.2534
300.23798
300.22466
300.14428
300.14745
300.23387
300.24818
300.26471
300.28613
300.2999
300.2769
300.25912
300.24371
300.15058
300.15362
300.25421
300.27083
300.28999
300.31477
300.33081
300.30407
300.28337
300.26539
300.15651
300.15917
300.27723
300.29672
300.31912
300.34802
300.36641
300.33512
300.31084
300.28969
300.1615
300.16334
300.30266
300.32563
300.35195
300.38583
300.40607
300.3694
300.34086
300.3159
300.16449
300.16468
300.32909
300.35616
300.38707
300.42668
300.44697
300.40429
300.37092
300.34162
300.16353
300.16054
300.35264
300.38419
300.41997
300.46563
300.48014
300.43256
300.39463
300.36091
300.15502
300.14618
300.36466
300.40038
300.44027
300.48904
300.49158
300.43944
300.39779
300.36047
300.13225
300.1102
300.34307
300.38073
300.42175
300.47065
300.42691
300.38512
300.34746
300.31102
300.07943
300.04528
300.2628
300.29542
300.32566
300.35033
300.19684
300.19026
300.16838
300.1427
299.9695
299.79023
299.84813
299.85829
299.86889
299.87528
299.60055
299.59048
299.59112
299.59655
299.64812
299.63686
299.62025
299.62062
299.6292
299.65605
299.62945
299.60496
299.60189
299.6049
299.62413
299.63956
299.71513
299.72672
299.74171
299.76767
299.47775
299.49406
299.50802
299.52328
299.60669
299.62902
299.61386
299.61305
299.61454
299.62047
299.62495
299.62031
299.62096
299.62468
299.64691
299.75975
299.75702
299.7572
299.75636
299.75033
300.14935
300.1479
300.12739
300.10369
299.96704
300.04839
300.23928
300.27277
300.30371
300.32792
300.40904
300.36369
300.32429
300.28687
300.08401
300.11406
300.31659
300.3551
300.39806
300.45163
300.46653
300.41196
300.36919
300.33151
300.1351
300.14843
300.33411
300.3698
300.41058
300.46324
300.4503
300.40079
300.36271
300.3295
300.15688
300.16198
300.3207
300.35125
300.38637
300.43219
300.41163
300.3696
300.33746
300.30954
300.16462
300.16551
300.29733
300.32273
300.35201
300.39037
300.36951
300.33459
300.30796
300.28489
300.16516
300.16391
300.2727
300.29366
300.31787
300.34965
300.3311
300.30215
300.2801
300.26102
300.16202
300.15966
300.24998
300.26739
300.28752
300.31396
300.29824
300.27402
300.25558
300.23964
300.15699
300.15408
300.22998
300.24462
300.26157
300.28385
300.27071
300.25013
300.23448
300.22098
300.15104
300.1479
300.2126
300.22509
300.23959
300.25867
300.24764
300.22986
300.21637
300.20476
300.14471
300.1415
300.19743
300.20824
300.22084
300.23746
300.22807
300.21246
300.20065
300.19053
300.1383
300.13511
300.18404
300.19353
300.20464
300.21934
300.21122
300.19731
300.18684
300.1779
300.13194
300.1288
300.17209
300.18052
300.19043
300.20361
300.19648
300.18394
300.17454
300.16657
300.1257
300.12263
300.1613
300.16885
300.1778
300.18976
300.18342
300.17199
300.16346
300.15628
300.11961
300.11664
300.15151
300.15834
300.16649
300.17744
300.17182
300.1613
300.15349
300.14695
300.11372
300.11085
300.14261
300.14886
300.15637
300.16649
300.16144
300.15167
300.14444
300.13844
300.10805
300.10732
300.13729
300.14321
300.15035
300.16
300.16491
300.15491
300.1475
300.14134
300.11006
300.11286
300.14557
300.152
300.1597
300.17007
300.17552
300.16474
300.15671
300.14999
300.11572
300.11862
300.15461
300.16166
300.17004
300.18127
300.18736
300.17563
300.16686
300.15946
300.12157
300.12457
300.16452
300.17231
300.18151
300.19378
300.20058
300.18771
300.17803
300.16982
300.12759
300.13063
300.17536
300.18405
300.19424
300.20777
300.21543
300.20116
300.19039
300.18118
300.1337
300.13678
300.18732
300.1971
300.20852
300.22361
300.23238
300.21636
300.20422
300.19379
300.13987
300.14294
300.20065
300.21179
300.22474
300.2418
300.25197
300.23374
300.21988
300.20792
300.14597
300.14895
300.21567
300.22853
300.24342
300.26299
300.27497
300.25387
300.23781
300.22392
300.15182
300.15453
300.23272
300.24778
300.26516
300.28798
300.30213
300.27735
300.25845
300.24208
300.157
300.15914
300.252
300.26986
300.29046
300.31746
300.33398
300.30447
300.28195
300.26241
300.16081
300.16182
300.2732
300.29462
300.31927
300.35155
300.36992
300.3346
300.3076
300.28411
300.16193
300.16081
300.29471
300.32044
300.34998
300.38855
300.40646
300.36452
300.33232
300.30422
300.15795
300.15266
300.31147
300.34196
300.37681
300.42206
300.43302
300.38481
300.34749
300.31473
300.14408
300.13075
300.31121
300.34582
300.38509
300.43538
300.42171
300.37139
300.33153
300.29598
300.10965
300.07909
300.2667
300.30156
300.33878
300.38338
300.31161
300.28489
300.25496
300.2232
300.04249
299.9659
300.10786
300.1326
300.15406
300.15694
299.8015
299.80049
299.79556
299.79057
299.76946
299.5942
299.52244
299.51195
299.50641
299.51071
299.73859
299.72106
299.70875
299.69966
299.64764
299.65491
299.70039
299.70712
299.71525
299.719
299.71189
299.75939
299.71649
299.59848
299.51766
299.50718
299.50284
299.50971
299.70982
299.67395
299.66211
299.65855
299.63173
299.53135
299.53278
299.5415
299.55605
299.61487
299.65606
299.64614
299.64239
299.63746
299.62656
299.63289
299.65417
299.66007
299.66147
299.65587
299.66364
299.74617
299.76852
299.80175
299.85674
299.70775
299.70267
299.76665
299.75116
299.99339
299.99507
299.98888
299.99336
299.99204
299.98812
299.98916
299.99199
300.16345
300.15361
300.1463
300.14023
300.10871
300.11154
300.14445
300.15078
300.15836
300.16855
300.17393
300.16335
300.15547
300.14887
300.11445
300.11742
300.15349
300.16039
300.1686
300.17959
300.18559
300.17414
300.16555
300.15832
300.12044
300.12352
300.16339
300.17098
300.17997
300.19193
300.19863
300.18612
300.1767
300.16871
300.12666
300.12983
300.17426
300.18268
300.19258
300.20569
300.21315
300.19938
300.18896
300.18006
300.13305
300.1363
300.18614
300.19556
300.20656
300.22104
300.22944
300.21415
300.20252
300.19253
300.13957
300.14286
300.19925
300.20987
300.2222
300.23837
300.24793
300.23076
300.21765
300.20633
300.14616
300.14944
300.21382
300.22591
300.23989
300.25818
300.26921
300.24967
300.23471
300.22175
300.15268
300.15584
300.23014
300.24407
300.26013
300.28108
300.29389
300.27134
300.25405
300.23903
300.15886
300.16167
300.24841
300.26466
300.28333
300.30767
300.32247
300.29611
300.27587
300.25825
300.16415
300.16616
300.26848
300.28764
300.30963
300.33824
300.3549
300.32376
300.29983
300.27895
300.16747
300.16783
300.2894
300.31217
300.33826
300.37217
300.38957
300.35268
300.32425
300.29941
300.16686
300.16405
300.30826
300.33529
300.36618
300.40621
300.42063
300.37747
300.3441
300.31483
300.15875
300.1502
300.31749
300.34888
300.38457
300.43054
300.432
300.3841
300.34657
300.31343
300.1368
300.11531
300.29794
300.33198
300.36992
300.41724
300.37781
300.3383
300.3035
300.27022
300.08609
300.0547
300.22867
300.25815
300.28471
300.30329
300.1314
300.13427
300.1184
300.09796
299.97327
299.77958
299.78108
299.78108
299.77956
299.77208
299.66505
299.66034
299.65896
299.66013
299.66939
299.63104
299.61806
299.61682
299.62143
299.63701
299.66431
299.61565
299.60722
299.61007
299.62038
299.74984
299.76072
299.76987
299.74673
299.93291
299.95371
299.92221
299.88891
299.67677
299.66108
299.68851
299.69698
299.7066
299.70727
299.97138
299.92983
299.89336
299.86027
299.71483
299.73589
299.92221
299.95196
299.98222
300.01597
299.66492
299.61645
299.60809
299.61098
299.62127
299.63215
299.61899
299.61768
299.62214
299.63732
299.66569
299.66124
299.66
299.66125
299.67064
299.78079
299.78231
299.78228
299.7807
299.77308
300.13267
300.13557
300.11974
300.09932
299.97462
300.05609
300.23019
300.25967
300.28621
300.30475
300.37934
300.33986
300.30504
300.27174
300.08737
300.11654
300.29946
300.33354
300.37151
300.41883
300.43363
300.3857
300.34813
300.31495
300.13801
300.15141
300.319
300.35044
300.38617
300.43218
300.42225
300.37905
300.34563
300.31631
300.15992
300.16518
300.3097
300.33679
300.36772
300.4078
300.39112
300.35417
300.32569
300.3008
300.16794
300.16887
300.29073
300.31356
300.33969
300.37365
300.35632
300.32513
300.30114
300.28021
300.16847
300.1671
300.26968
300.28888
300.31091
300.33958
300.32374
300.29733
300.27705
300.25938
300.16505
300.16253
300.24948
300.26577
300.28448
300.30886
300.29502
300.27243
300.2551
300.24004
300.15968
300.15662
300.23111
300.24507
300.26116
300.28215
300.27023
300.25066
300.23566
300.22267
300.15342
300.15015
300.2147
300.22683
300.24084
300.25916
300.24888
300.23167
300.21853
300.20718
300.14684
300.14351
300.20007
300.21072
300.22308
300.23929
300.23033
300.215
300.20334
300.19332
300.14019
300.13689
300.18691
300.19636
300.20738
300.2219
300.21399
300.20019
300.18974
300.18081
300.13362
300.13039
300.17499
300.18344
300.19337
300.20651
300.19945
300.1869
300.17744
300.16942
300.12719
300.12404
300.16408
300.17171
300.18072
300.19272
300.18636
300.17487
300.16625
300.15899
300.12094
300.1179
300.15413
300.16106
300.16931
300.18034
300.17465
300.16404
300.15612
300.14949
300.11491
300.11198
300.14505
300.15141
300.15902
300.16925
300.16414
300.15426
300.14692
300.14081
300.10912
300.10634
300.1368
300.14268
300.14977
300.15933
300.10711
300.13728
300.14324
300.15042
300.16014
300.16515
300.15508
300.14762
300.14141
300.10989
300.11274
300.14573
300.15222
300.15998
300.17044
300.17604
300.16515
300.15705
300.15026
300.11563
300.11858
300.155
300.16213
300.17061
300.18198
300.18829
300.17639
300.1675
300.15999
300.12159
300.12463
300.16523
300.17315
300.1825
300.19498
300.20209
300.18897
300.17911
300.17074
300.12772
300.13083
300.17652
300.1854
300.19582
300.20965
300.21776
300.20311
300.19206
300.18263
300.13397
300.13714
300.18909
300.19915
300.2109
300.22644
300.2358
300.21925
300.20671
300.19594
300.14031
300.14348
300.20324
300.21478
300.22821
300.24591
300.2569
300.23789
300.22346
300.21102
300.14663
300.14972
300.21935
300.23278
300.24836
300.26885
300.2819
300.25972
300.24284
300.22827
300.15271
300.15555
300.23783
300.25369
300.27204
300.29616
300.31174
300.28543
300.26539
300.24806
300.15816
300.16044
300.25896
300.27795
300.29989
300.32869
300.34703
300.31542
300.29134
300.27048
300.16224
300.16339
300.28248
300.30542
300.33189
300.36661
300.38716
300.34904
300.31994
300.2947
300.16364
300.16264
300.30665
300.33437
300.36629
300.40803
300.42816
300.38269
300.34784
300.31751
300.15988
300.15467
300.32597
300.35891
300.39666
300.44573
300.45808
300.40594
300.36556
300.33019
300.14609
300.13265
300.32714
300.36442
300.4067
300.46063
300.44493
300.39211
300.34972
300.3117
300.11148
300.08132
300.28134
300.31818
300.35689
300.40137
300.31921
300.29594
300.26579
300.23298
300.04528
299.96392
300.09651
300.11934
300.13883
300.13923
299.73733
299.74549
299.74762
299.74848
299.75622
299.64075
299.61269
299.60772
299.60554
299.60824
299.60602
299.60224
299.60239
299.60433
299.62458
299.60119
299.51327
299.49706
299.48192
299.46156
299.74119
299.71971
299.7077
299.69834
299.63181
299.61821
299.58676
299.58167
299.58204
299.60262
299.81188
299.77907
299.76295
299.75167
299.67849
299.6895
299.80698
299.82675
299.85278
299.88929
299.78285
299.76158
299.74841
299.73823
299.664
299.65312
299.69594
299.70217
299.70978
299.71283
299.62681
299.61976
299.61655
299.6172
299.61594
299.6012
299.53188
299.52331
299.52073
299.53002
299.73202
299.69253
299.67783
299.67191
299.63496
299.64148
299.63662
299.63867
299.6479
299.67454
299.68258
299.67057
299.66558
299.66515
299.67103
299.77851
299.78487
299.7862
299.78714
299.78532
300.14371
300.14408
300.12635
300.10463
299.97443
300.05566
300.234
300.26429
300.29151
300.31179
300.38397
300.34333
300.30777
300.27391
300.08695
300.11642
300.30111
300.33558
300.37406
300.42212
300.4359
300.38749
300.3496
300.31615
300.13795
300.15135
300.3198
300.35141
300.38736
300.43368
300.42325
300.37984
300.34628
300.31684
300.15986
300.16509
300.31006
300.33723
300.36826
300.40847
300.39159
300.35454
300.32599
300.30103
300.16781
300.16869
300.29087
300.31375
300.33995
300.37399
300.35657
300.3253
300.30126
300.28028
300.16825
300.16685
300.26969
300.28894
300.31102
300.33976
300.32386
300.29738
300.27705
300.25934
300.16478
300.16224
300.2494
300.26572
300.28448
300.30892
300.29504
300.27239
300.25502
300.23992
300.15937
300.1563
300.23095
300.24495
300.26108
300.28212
300.27015
300.25053
300.2355
300.22248
300.1531
300.14982
300.21449
300.22664
300.24068
300.25904
300.24873
300.23148
300.21831
300.20695
300.1465
300.14318
300.19981
300.21048
300.22286
300.2391
300.23011
300.21477
300.20309
300.19305
300.13986
300.13657
300.18664
300.1961
300.20713
300.22167
300.21375
300.19993
300.18947
300.18053
300.13331
300.13008
300.1747
300.18316
300.1931
300.20625
300.19917
300.18661
300.17715
300.16913
300.12689
300.12375
300.16379
300.17142
300.18043
300.19244
300.18607
300.17458
300.16596
300.1587
300.12065
300.11762
300.15384
300.16077
300.16902
300.18005
300.17436
300.16375
300.15583
300.14921
300.11464
300.11172
300.14477
300.15112
300.15873
300.16895
300.16383
300.15395
300.14661
300.14051
300.10885
300.10606
300.13643
300.14229
300.14937
300.15892
300.1087
300.14022
300.14629
300.1536
300.16345
300.16855
300.15835
300.15076
300.14444
300.11153
300.11442
300.14885
300.15545
300.16333
300.17391
300.17957
300.16858
300.16036
300.15346
300.11739
300.1204
300.15828
300.16551
300.17409
300.18554
300.19187
300.17991
300.17093
300.16334
300.12347
300.1266
300.16864
300.17663
300.18605
300.19855
300.2056
300.1925
300.1826
300.17418
300.12976
300.13297
300.17996
300.18886
300.19927
300.21303
300.2209
300.20642
300.19543
300.18602
300.13621
300.13947
300.19238
300.20236
300.21398
300.22925
300.23815
300.22199
300.20968
300.19907
300.14275
300.14604
300.20613
300.21743
300.23051
300.24765
300.25785
300.2396
300.22564
300.21357
300.1493
300.15253
300.22145
300.23439
300.24931
300.2688
300.2806
300.2597
300.24369
300.2298
300.15567
300.15869
300.23863
300.2536
300.27083
300.2933
300.30697
300.28273
300.26413
300.24794
300.16149
300.16396
300.2577
300.27525
300.29539
300.32161
300.33721
300.30876
300.2869
300.26783
300.16596
300.16729
300.27818
300.29894
300.32273
300.35365
300.37067
300.33703
300.31113
300.2885
300.16765
300.1667
300.29836
300.32302
300.35121
300.38779
300.40414
300.36447
300.33385
300.30703
300.16389
300.15857
300.31344
300.34246
300.37553
300.41828
300.42802
300.38247
300.34709
300.31596
300.14996
300.13651
300.31182
300.3447
300.38191
300.42939
300.41462
300.36766
300.33001
300.29621
300.11487
300.08528
300.26829
300.30136
300.33592
300.37528
300.30175
300.28288
300.25656
300.22712
300.0534
299.97206
300.0974
300.11811
300.13457
300.13214
299.77144
299.77589
299.77663
299.77659
299.77625
299.66852
299.65526
299.65419
299.65744
299.66759
299.65618
299.63271
299.62565
299.62535
299.6384
299.64829
299.62826
299.62645
299.6281
299.63849
299.65185
299.64327
299.64102
299.64212
299.66106
299.7825
299.8256
299.8334
299.84168
299.84646
300.1873
300.17995
300.1588
300.13386
299.96587
300.04486
300.26317
300.29616
300.32704
300.35107
300.42886
300.38643
300.34819
300.31137
300.07863
300.10916
300.34323
300.38128
300.42298
300.47315
300.49442
300.44097
300.39863
300.36091
300.13133
300.1452
300.36522
300.40134
300.44187
300.49179
300.48272
300.43411
300.39559
300.36148
300.15396
300.15941
300.35317
300.38509
300.42141
300.46795
300.44903
300.40557
300.37172
300.34206
300.16234
300.16345
300.32943
300.35682
300.38816
300.42846
300.4076
300.37033
300.34139
300.31614
300.16327
300.16214
300.30281
300.32604
300.35271
300.38711
300.36749
300.33574
300.31115
300.28976
300.16034
300.15806
300.27723
300.29693
300.31961
300.34891
300.33154
300.30445
300.2835
300.26533
300.15544
300.15261
300.25411
300.2709
300.29028
300.31536
300.30038
300.2771
300.25913
300.24357
300.14962
300.14655
300.2337
300.24814
300.26484
300.2865
300.27367
300.25346
300.23789
300.22446
300.14342
300.14027
300.21579
300.22832
300.24286
300.26177
300.25073
300.233
300.21936
300.20765
300.13711
300.13397
300.19998
300.21096
300.22376
300.24045
300.23087
300.21513
300.20307
300.19276
300.13084
300.12774
300.18594
300.19564
300.20702
300.2219
300.21351
300.19939
300.18863
300.17948
300.12467
300.12164
300.17334
300.18199
300.19219
300.2056
300.19818
300.18542
300.17573
300.16753
300.11865
300.11572
300.16206
300.16983
300.17906
300.19122
300.18472
300.17309
300.16428
300.15687
300.11284
300.11002
300.15196
300.15902
300.16746
300.17861
300.17286
300.16214
300.15405
300.1473
300.10726
300.10727
300.14723
300.15398
300.16205
300.17273
300.17846
300.16735
300.15894
300.15189
300.11004
300.11289
300.1568
300.16418
300.17296
300.18454
300.19102
300.17891
300.16972
300.16197
300.1158
300.11875
300.16744
300.17559
300.18524
300.19793
300.20532
300.19199
300.18184
300.17323
300.12176
300.12482
300.17935
300.18845
300.19915
300.21316
300.22151
300.20673
300.19543
300.18578
300.12792
300.13105
300.19258
300.20282
300.21479
300.2304
300.23992
300.22337
300.21067
300.19977
300.1342
300.13738
300.20739
300.21902
300.23253
300.2501
300.26104
300.24233
300.22791
300.21549
300.14057
300.14376
300.22411
300.23741
300.25282
300.2728
300.2855
300.2641
300.24758
300.23328
300.14693
300.15005
300.24308
300.25846
300.27622
300.29921
300.31401
300.28926
300.27012
300.25352
300.15307
300.15593
300.26464
300.2826
300.30327
300.32998
300.34714
300.31826
300.29588
300.27642
300.15857
300.16087
300.28883
300.30995
300.33419
300.36546
300.38487
300.35099
300.32469
300.30174
300.16267
300.16379
300.31497
300.3399
300.36843
300.40512
300.42585
300.38615
300.35522
300.32815
300.16395
300.16278
300.34076
300.37008
300.40351
300.44635
300.46545
300.41948
300.38354
300.35191
300.15975
300.1542
300.36044
300.3943
300.43253
300.48086
300.49066
300.44087
300.40053
300.36457
300.14535
300.13139
300.361
300.3987
300.44102
300.49438
300.47619
300.42497
300.38279
300.34448
300.1092
300.07897
300.31437
300.35181
300.39115
300.43596
300.3634
300.33517
300.30261
300.26865
300.04589
299.96799
300.14693
300.1738
300.19747
300.20897
299.89182
299.8839
299.87109
299.8589
299.79023
299.66618
299.64844
299.64708
299.64869
299.65457
299.65001
299.62758
299.62203
299.62337
299.63463
299.59343
299.5597
299.55495
299.55572
299.57157
299.5581
299.5488
299.55239
299.55929
299.58481
299.58946