/*--------------------------------*- C++ -*----------------------------------*\
  =========                 |
  \\      /  F ield         | OpenFOAM: The Open Source CFD Toolbox
   \\    /   O peration     | Website:  https://openfoam.org
    \\  /    A nd           | Version:  7
     \\/     M anipulation  |
\*---------------------------------------------------------------------------*/
FoamFile
{
    version     2.0;
    format      ascii;
    class       volScalarField;
    location    "400";
    object      k;
}
// * * * * * * * * * * * * * * * * * * * * * * * * * * * * * * * * * * * * * //

dimensions      [0 2 -2 0 0 0 0];

internalField   nonuniform List<scalar> 
24866
(
3468.0716
3534.7255
3544.0125
4134.4706
4720.524
4709.4527
4668.8072
4720.9908
4726.3621
4663.2359
4689.341
4689.6802
4664.0806
4726.9139
4720.4741
4670.7035
4704.9731
4722.0256
4706.6942
4690.9979
4624.2181
4736.622
4869.5676
4808.5672
4680.6341
4596.4656
4694.8287
4817.7237
4804.8803
4641.1204
4711.5849
4709.6308
4709.6239
4711.5907
4641.3287
4804.9688
4818.2783
4695.362
4595.9064
4679.9611
4808.3829
4869.5517
4736.6734
4624.23
4691.5315
4706.4067
4722.7643
4704.3668
4671.1589
4719.2837
4727.8535
4663.819
4689.3483
4689.6093
4664.4658
4725.934
4721.481
4667.8367
4710.6898
4719.4646
4752.6095
4724.5008
4753.0994
4755.0713
4682.0332
4715.4451
4776.2415
4764.5617
4682.553
4685.1263
4685.3531
4682.9456
4764.7573
4776.2907
4715.6651
4681.198
4751.0707
4750.671
4715.2507
4735.338
4728.979
4629.0706
4642.9317
4701.2064
4720.518
4783.7916
4715.4508
4654.9224
4727.1819
4792.218
4720.744
4663.0079
4703.5674
4707.454
4700.5278
4683.5391
4671.6705
4691.7127
4686.4663
4696.1157
4692.3833
4695.6369
4691.4889
4697.8623
4702.1257
4702.1822
4700.0026
4704.9691
4698.688
4691.2084
4642.1998
4744.1189
4740.8901
4714.0631
4679.3661
4693.9758
4695.7227
4698.219
4701.9709
4704.2193
4703.7522
4700.451
4703.6658
4698.5236
4692.9095
4689.9201
4676.2491
4682.5732
4685.4607
4692.5693
4699.8322
4705.2312
4708.1929
4706.7163
4707.2819
4705.4069
4701.9911
4700.0326
4695.7361
4698.7155
4679.3956
4642.2406
4744.1121
4740.8761
4537.8759
4539.0649
4169.738
4112.9493
4124.4618
4124.4619
4112.9424
4052.9214
4066.3551
4590.7973
4589.6348
4084.2935
4101.8255
4012.0461
4082.5028
4063.0193
3947.5412
3918.9623
4025.9223
4095.7859
4121.6582
4133.4637
4110.7663
4071.3109
4118.4849
4120.6354
4047.9965
4047.7702
4047.3146
4046.9549
4119.8231
4118.5369
4070.4435
4113.8099
4179.8772
4190.8575
4548.8809
4550.8813
4166.1736
4015.2354
4177.9443
4123.9044
4074.2234
4688.6134
4695.4124
4688.625
4696.1381
4689.4323
4675.7271
4682.3904
4685.2391
4692.2843
4699.4325
4704.6922
4707.5579
4708.2216
4708.8532
4707.3087
4704.264
4702.2345
4703.6157
4705.0003
4720.7917
4691.2309
4098.8535
4124.8145
4452.3975
4590.9325
4066.1361
4052.9417
3518.2731
3530.8437
3536.3009
3536.2978
3530.827
3518.2336
3493.7386
3503.8445
3512.1926
3489.5317
3505.7535
3492.8271
3448.8667
3432.1632
3498.1959
3522.121
3535.9747
3542.1279
3533.1014
3534.1089
3532.6759
3535.4451
3517.4518
3513.4024
3513.3153
3516.811
3534.5961
3532.2238
3533.4407
3078.4712
3076.3699
3077.8635
3077.7891
3076.6066
3535.0929
4114.5066
4070.2285
4119.001
4119.5316
4048.28
4047.68
4047.3626
4047.6224
4120.5075
4117.6885
4071.8466
4110.4544
4133.9952
4121.6109
4096.1864
4026.0486
3919.0985
4440.055
4637.0918
4568.4657
4063.332
4082.8208
4012.2051
4101.5898
4083.8193
4590.0403
4466.3001
4161.619
4120.7696
3992.2156
4156.5013
4190.0296
4199.5847
4577.7959
4792.4052
4727.2991
4654.8918
4663.0403
4720.4956
4707.5183
4702.2033
4703.8242
4706.7697
4703.7403
4705.2796
4704.7134
4702.0686
4697.4915
4692.2845
4692.3446
4694.5192
4697.5095
4699.4735
4699.8944
4698.6108
4695.7478
4700.5457
4697.9636
4700.6202
4701.2252
4643.0318
4683.6783
4691.6169
4691.8656
4692.5064
4693.0002
4692.6378
4692.3482
4692.321
4692.3538
4696.1416
4689.4956
4685.3326
4685.535
4690.0025
4696.2477
4686.6464
4715.412
4671.8541
4629.246
4729.331
4735.3114
4531.8343
4176.6935
4155.7616
4525.8575
4137.9168
4159.4152
3994.0054
3453.582
3522.4193
3498.3462
3432.2663
3449.0291
3948.0411
3957.0313
4094.1064
4122.334
4456.5218
4438.2341
4123.1091
3973.8328
4138.0449
3423.2534
3492.9242
3505.7417
3489.4931
3512.2915
3503.926
3493.7475
3045.9133
3065.4757
3071.4356
3072.1794
3072.1774
3071.4241
3065.4533
3045.9129
3047.9515
3054.1482
3046.6603
3051.5877
3041.4057
3020.7007
3015.5109
3053.6899
3066.3163
3072.5521
3076.3983
3075.6999
3079.0812
3075.2105
3076.9183
3071.7894
3070.6199
3070.2665
3071.0117
3076.1879
3074.6672
2706.1144
2709.6709
2707.3641
2706.8897
2706.8777
2707.5318
2709.8231
3078.5792
3533.4133
3532.6264
3534.8729
3517.5498
3513.3853
3513.4413
3517.3679
3535.2275
3532.1568
3534.2808
3532.9939
3542.4464
3536.0667
3072.6517
3066.5208
3053.8245
3015.6119
3020.8348
3041.4971
3051.6141
3046.6563
3054.1855
3047.9664
2685.1288
2684.9998
2698.9278
2702.4257
2702.4763
2702.4758
2702.4175
2698.9129
2684.9953
2685.1166
2689.2475
2687.2434
2688.3785
2680.8076
2669.6178
2668.2968
2691.3224
2699.4777
2703.1929
2705.8156
2707.1417
2710.2142
2706.6552
2707.7125
2706.6859
2706.3203
2706.0826
2706.1112
2707.0942
2406.9758
2406.3935
2409.1741
2407.148
2406.1498
2406.1631
2407.2755
2409.3307
2406.6522
2407.2767
2707.4375
3076.5275
3071.7917
3070.6265
3070.4021
3071.4305
3076.6628
3074.8363
3079.0877
3075.6396
3076.5672
2705.8979
2703.2705
2699.6152
2691.43
2668.3834
2669.7184
2680.8792
2688.4056
2687.2488
2689.2729
2393.0307
2390.0877
2390.7522
2400.4878
2402.625
2402.5881
2402.5874
2402.6189
2400.477
2390.7462
2390.0775
2393.0125
2393.2162
2392.795
2386.9891
2380.4892
2380.8529
2395.3114
2400.8198
2403.3993
2405.313
2407.1032
2409.64
2406.8816
2407.4808
2407.9221
2407.9246
2407.7482
2407.4841
2162.3357
2161.3396
2161.0345
2163.106
2161.4122
2160.3845
2160.4057
2161.5132
2163.25
2161.25
2161.592
2162.6314
2407.8828
2706.6579
2706.3437
2706.2083
2706.4227
2707.4564
2706.3555
2710.1412
2707.0875
2407.0488
2405.3477
2403.4531
2400.9124
2395.3947
2380.9242
2380.5658
2387.0457
2392.8207
2393.2259
2151.323
2150.3571
2148.1982
2149.2035
2156.0796
2157.4175
2157.4214
2157.4202
2157.4125
2156.0712
2149.1972
2148.1896
2150.3434
2151.3119
2150.2703
2145.7586
2141.7867
2142.8951
2152.3913
2156.2102
2158.1778
2159.6663
2161.4092
2163.4885
2161.4548
2161.7507
2162.6746
2162.8967
2162.7633
1959.8928
1959.4073
1958.3526
1958.2152
1959.7292
1958.3668
1957.4782
1957.5001
1958.4483
1959.855
1958.3931
1958.5601
1959.6305
1960.0077
2162.9132
2407.9484
2407.8536
2407.7204
2407.2591
2406.6416
2409.5398
2163.3868
2161.357
2159.6768
2158.2139
2156.2742
2152.4557
2142.9533
2141.846
2145.804
2150.2938
1949.4104
1950.6264
1949.536
1947.9569
1949.0571
1953.9943
1954.8848
1954.9542
1954.9529
1954.8805
1953.9873
1949.0511
1947.9494
1949.5251
1950.615
1949.3893
1945.8679
1943.3505
1944.726
1951.241
1953.99
1955.5937
1956.8109
1958.3448
1960.0295
1958.5659
1958.6873
1959.6737
1959.9956
1789.857
1789.7751
1789.3029
1788.3639
1788.3142
1789.4072
1788.3516
1787.641
1787.661
1788.4185
1789.5145
1788.4607
1788.5333
1789.4751
1789.8666
1789.8359
1959.9627
2162.8475
2162.5197
2161.5669
2161.2642
1958.4152
1959.9372
1958.2974
1956.8099
1955.6181
1954.0357
1951.2915
1944.7736
1943.3974
1945.9048
1778.1734
1780.9127
1782.1142
1781.1554
1780.0216
1781.081
1784.6812
1785.3313
1785.4572
1785.456
1785.3276
1784.6753
1781.0755
1780.0151
1781.1463
1782.1032
1780.8939
1778.1429
1776.5104
1777.9039
1782.542
1784.6095
1785.97
1786.9962
1788.2905
1789.6333
1788.6003
1788.6367
1789.5166
1644.895
1645.2122
1645.1467
1644.7229
1643.9486
1643.9352
1644.716
1643.921
1643.3767
1643.3942
1643.9764
1644.8067
1644.0559
1644.0866
1644.8574
1645.2198
1645.1991
1644.8233
1789.424
1959.5546
1958.5384
1788.5173
1788.4811
1789.5538
1788.249
1786.9906
1785.9869
1784.6435
1782.5823
1777.9433
1776.5484
1634.4217
1635.4875
1637.6279
1638.729
1637.9759
1637.1799
1638.1313
1640.7906
1641.307
1641.4707
1641.4696
1641.3038
1640.7856
1638.1262
1637.1742
1637.9681
1638.7186
1637.6112
1635.462
1634.3904
1635.68
1639.0797
1640.6952
1641.8708
1642.749
1643.8208
1644.8792
1644.1645
1644.1706
1519.8081
1520.3828
1520.6595
1520.6068
1520.2434
1519.6277
1519.6219
1520.175
1519.5852
1519.1795
1519.1945
1519.6316
1520.2514
1519.7218
1519.7402
1520.3496
1520.6656
1520.6518
1520.3272
1519.7325
1644.0754
1644.07
1644.8124
1643.7852
1642.7418
1641.883
1640.7214
1639.1125
1635.7129
1512.9759
1511.8384
1512.5417
1514.2147
1515.1859
1514.6353
1514.0886
1514.907
1516.8936
1517.3248
1517.5079
1517.5068
1517.3219
1516.8891
1514.9024
1514.0835
1514.6285
1515.1762
1514.1998
1512.5199
1511.8122
1512.9482
1515.498
1516.7945
1517.8164
1518.5728
1519.4535
1520.2871
1519.8035
1411.5336
1411.5493
1411.9993
1412.2322
1412.1894
1411.8858
1411.4026
1411.3914
1411.7809
1411.3441
1411.0475
1411.0603
1411.3831
1411.8454
1411.4744
1411.4947
1411.9705
1412.2372
1412.2282
1411.9562
1411.4891
1411.4734
1519.7282
1520.2316
1519.4233
1518.5654
1517.8255
1516.8154
1515.5251
1407.8903
1405.9419
1404.9685
1405.4343
1406.7439
1407.5826
1407.2038
1406.8363
1407.5215
1409.0217
1409.388
1409.5764
1409.5755
1409.3855
1409.0178
1407.5175
1406.8318
1407.1977
1407.5738
1406.7305
1405.4157
1404.9462
1405.9184
1407.8677
1408.9251
1409.814
1410.4672
1411.1898
1411.8528
1316.6141
1316.41
1316.4397
1316.793
1316.9855
1316.9506
1316.7002
1316.3206
1316.3
1316.5738
1316.2465
1316.0332
1316.0441
1316.2796
1316.6284
1316.3693
1316.3963
1316.7685
1316.9897
1316.984
1316.7596
1316.3918
1316.3614
1316.576
1411.8068
1411.1642
1410.4602
1409.8209
1408.9419
1314.1593
1313.2946
1311.7802
1310.9609
1311.2709
1312.2983
1313.0145
1312.771
1312.5294
1313.0941
1314.2401
1314.5504
1314.7345
1314.7337
1314.5482
1314.2366
1313.0905
1312.5254
1312.7656
1313.0065
1312.2864
1311.2548
1310.9419
1311.7602
1313.2757
1314.1456
1314.9183
1315.4832
1316.0776
1231.8839
1232.3275
1232.2022
1232.2446
1232.5256
1232.6834
1232.6547
1232.4495
1232.148
1232.1184
1232.3117
1232.0611
1231.91
1231.9193
1232.0893
1232.358
1232.1766
1232.2107
1232.505
1232.687
1232.6836
1232.4997
1232.2064
1232.163
1232.2959
1231.8653
1316.0559
1315.4768
1314.9234
1230.907
1230.2432
1229.5289
1228.3333
1227.6499
1227.8576
1228.6662
1229.2743
1229.1326
1228.9783
1229.4399
1230.3261
1230.5862
1230.7601
1230.7593
1230.5842
1230.3232
1229.4368
1228.9748
1229.1279
1229.2671
1228.6558
1227.8437
1227.6337
1228.3163
1229.5131
1230.232
1230.9032
1231.3926
1156.4647
1156.8733
1157.2482
1157.1761
1157.2279
1157.4556
1157.5848
1157.5612
1157.3931
1157.1498
1157.1136
1157.2513
1157.0541
1156.9488
1156.9566
1157.0782
1157.2908
1157.1627
1157.2019
1157.4387
1157.5881
1157.5862
1157.4356
1157.1972
1157.1441
1157.2218
1156.8573
1156.4589
1231.3866
1232.4351
1233.4908
1231.6013
1232.073
1233.0671
1229.5175
1230.3065
1231.3616
1231.8982
1231.4026
1230.6513
1155.9526
1154.4809
1154.8575
1155.5521
1155.7671
1155.9275
1155.9267
1155.7654
1155.5498
1154.8552
1154.4784
1154.572
1154.6371
1154.1193
1153.4775
1153.3352
1153.9026
1154.8614
1155.457
1156.0399
1088.9522
1089.3214
1089.664
1089.9875
1089.9505
1090.0082
1090.1968
1090.3026
1090.283
1090.1448
1089.9447
1089.9045
1090.0045
1089.8443
1089.7722
1089.7792
1089.8654
1090.0386
1089.9465
1089.9885
1090.1827
1090.3056
1090.3047
1090.1811
1089.9834
1089.9241
1089.9652
1089.65
1089.3159
1088.9536
1156.0424
1155.4659
1154.8745
1153.9167
1153.3487
1153.489
1154.128
1154.6429
1154.5756
1087.7366
1087.6824
1087.9904
1088.5425
1088.7174
1088.8631
1088.8629
1088.7167
1088.5416
1087.9899
1087.6821
1087.7356
1087.7484
1087.3098
1086.8002
1086.7023
1087.1737
1087.9522
1088.4461
1028.0831
1028.5224
1028.8438
1029.133
1029.4174
1029.4029
1029.4632
1029.623
1029.7104
1029.6939
1029.5794
1029.4113
1029.3697
1029.4444
1029.3099
1029.2618
1029.268
1029.3285
1029.4743
1029.406
1029.4487
1029.6113
1029.7131
1029.7129
1029.6106
1029.4428
1029.3806
1029.3981
1029.1202
1028.8378
1028.5219
1028.0866
1088.4529
1087.9623
1087.1844
1086.7122
1086.8083
1087.3153
1087.7513
1027.4864
1027.5078
1027.4805
1027.7341
1028.1797
1028.3198
1028.4509
1028.4513
1028.321
1028.182
1027.7383
1027.4859
1027.5131
1027.4902
1027.1183
1026.7114
1026.6421
1027.0342
1027.674
973.10779
973.44439
973.82529
974.10487
974.35029
974.60511
974.60374
974.66389
974.80288
974.87607
974.86177
974.7655
974.62067
974.58007
974.63842
974.52085
974.49009
974.49569
974.5376
974.66499
974.61206
974.65316
974.79287
974.8783
974.87852
974.7926
974.64652
974.58429
974.58752
974.33756
974.09714
973.82096
973.44185
973.10496
1027.6796
1027.0394
1026.6456
1026.7125
1027.1168
972.61248
972.92633
972.97107
972.96101
973.17254
973.53862
973.6483
973.76626
973.76826
973.65435
973.54885
973.18798
972.98049
972.99203
972.94662
972.63034
972.30259
972.25041
972.57688
923.03653
923.47935
923.74991
924.07843
924.32053
924.52897
924.76245
924.76716
924.82421
924.94952
925.01261
924.99996
924.91665
924.78716
924.74984
924.79868
924.69017
924.67198
924.67716
924.70562
924.82291
924.77872
924.81614
924.94072
925.01444
925.01489
924.9406
924.80876
924.74937
924.74536
924.5147
924.30854
924.06634
923.73515
923.45903
923.00609
972.57068
972.23994
972.28831
922.76262
923.02465
923.29157
923.34964
923.34868
923.5292
923.83693
923.91924
924.02699
924.03264
923.93643
923.86532
923.57062
923.40091
923.40668
923.34955
923.07963
922.81139
922.7658
877.53802
877.75756
878.12444
878.3276
878.60622
878.81263
878.98798
879.20926
879.21398
879.26503
879.38463
879.44225
879.43074
879.35484
879.23207
879.20034
879.24512
879.13624
879.12731
879.13223
879.15092
879.26783
879.22715
879.25868
879.37661
879.44368
879.44429
879.37655
879.25077
879.19701
879.19131
878.96983
878.79201
878.5787
878.28807
878.06828
877.67673
877.43254
922.72479
923.76466
924.21387
924.68468
924.91237
924.72423
924.31327
878.89455
877.97179
878.13152
878.39856
878.4541
878.55652
878.56981
878.49524
878.46581
878.22848
878.09438
878.10623
878.04771
877.81619
877.58941
836.08499
836.01016
836.17497
836.46811
836.59136
836.81691
836.98596
837.12902
837.34977
837.34902
837.39136
837.51575
837.57376
837.56308
837.48814
837.36108
837.33702
837.38214
837.25988
837.25764
837.26241
837.27416
837.40393
837.36246
837.38613
837.50831
837.5749
837.57563
837.50834
837.378
837.33235
837.3295
837.10352
836.94922
836.76036
836.50409
836.34233
835.99569
835.7776
835.81898
877.46753
877.68213
877.90913
877.97188
836.25017
836.24062
836.38894
836.63071
836.65643
836.76082
836.78901
836.74499
836.7746
836.59529
836.50231
836.53716
836.48897
836.28896
798.04484
797.84262
797.71888
797.81328
798.0219
798.0383
798.19909
798.32444
798.43281
798.66811
798.65718
798.68921
798.83261
798.89793
798.8875
798.80624
798.66089
798.64575
798.69456
798.54121
798.54314
798.5478
798.55521
798.71563
798.67007
798.68485
798.82552
798.89916
798.90002
798.82575
798.67683
798.64072
798.64409
798.39532
798.26023
798.09206
797.86566
797.77054
797.45573
797.2549
797.31461
797.47177
835.99894
836.19136
797.63339
797.67886
797.64616
797.79067
798.02044
798.00893
798.12512
798.17975
798.18309
798.30267
798.19461
798.16001
798.24237
798.21928
762.90073
762.74683
762.52315
762.31715
762.30864
762.40476
762.27193
762.34506
762.41534
762.48422
762.75149
762.72775
762.75039
762.92934
763.0102
763.00026
762.9048
762.725
762.71768
762.77167
762.56668
762.56961
762.57409
762.58019
762.79172
762.7405
762.74759
762.92309
763.01186
763.01287
762.92354
762.73975
762.71211
762.72303
762.43014
762.30955
762.1592
761.96058
761.94608
761.65496
761.46631
761.55844
761.70379
761.8373
761.85977
761.78776
761.93216
762.15944
762.09962
762.23846
762.33526
762.41304
762.66806
762.66124
762.71869
762.88101
730.27253
730.35272
730.21541
729.9484
729.62469
729.4602
729.39149
729.05634
729.0081
729.00884
729.03456
729.34801
729.315
729.33492
729.56311
729.66703
729.65819
729.54242
729.31574
729.31038
729.36663
729.0947
729.09424
729.09833
729.10707
729.3847
729.33063
729.3358
729.55874
729.66848
729.6696
729.55921
729.32755
729.30209
729.31694
728.96296
728.85073
728.716
728.54604
728.62487
728.35874
728.18421
728.31955
728.46043
728.56773
728.56037
728.43643
728.57713
728.80269
728.68478
728.85334
729.00964
729.19797
729.64354
729.79179
729.99533
700.04836
700.46485
700.61231
700.48891
700.16919
699.70393
699.30042
698.97425
698.3851
698.17788
698.09948
698.08634
698.44403
698.4221
698.45716
698.73266
698.85902
698.85253
698.71927
698.44984
698.43167
698.47446
698.14274
698.13475
698.13814
698.15299
698.48906
698.4475
698.46549
698.73199
698.86015
698.86117
698.7318
698.45539
698.41606
698.41736
698.00649
697.89475
697.77316
697.63578
697.8055
697.58718
697.44486
697.61443
697.74296
697.82327
697.78935
697.61855
697.73965
697.94433
697.77144
697.96565
698.19155
698.52868
699.21742
699.61436
672.4183
673.23367
673.78683
673.97143
673.85807
673.51475
672.91705
672.12467
671.35733
670.46698
670.08104
669.93377
669.89457
670.263
670.31151
670.39829
670.6876
670.82372
670.8204
670.68571
670.41057
670.3478
670.32716
669.98442
669.97564
669.97812
669.99131
670.3366
670.35705
670.41851
670.69271
670.82534
670.82555
670.69138
670.40617
670.31935
670.25483
669.83234
669.72232
669.61129
669.50282
669.73332
669.64632
669.58608
669.72688
669.79209
669.83785
669.80236
669.62763
669.69196
669.81257
669.61478
669.81937
670.10245
670.60852
671.58976
646.94299
648.63042
650.09157
650.73316
650.86108
650.75438
650.48189
649.80261
648.3639
646.73139
645.44149
644.92609
644.7602
644.68763
644.96482
645.24585
645.42508
645.64562
645.84681
645.86235
645.67208
645.46104
645.31813
645.08454
644.85406
644.89891
644.8997
644.85632
645.08718
645.32024
645.45978
645.65761
645.84935
645.86355
645.66971
645.44505
645.27432
644.99385
644.68181
644.62571
644.52258
644.39762
644.60793
644.91297
645.03052
644.96068
644.83746
644.88114
644.86752
644.78323
644.71225
644.5625
644.43961
644.65674
644.94384
645.57042
622.80557
624.69527
628.77277
631.54995
631.79287
631.6425
631.55309
631.57532
631.29051
628.53566
624.50969
622.695
621.90153
621.79772
622.1017
621.5944
623.07325
623.17406
623.16877
624.11243
624.1158
623.19837
623.23479
623.18193
621.77823
622.36526
622.12132
622.12064
622.3627
621.77486
623.17542
623.21813
623.18514
624.11466
624.1129
623.18773
623.20683
623.12635
621.6773
622.19411
621.85291
621.75775
621.94079
621.63644
623.65255
623.20412
622.61996
622.43227
623.25475
622.55189
622.62442
622.58075
621.24729
621.88299
621.70104
621.91476
604.6824
604.93615
606.79616
613.59391
618.99025
617.85861
617.441
617.34782
617.66758
618.77075
613.38668
606.65275
604.82516
604.71471
604.59077
604.68961
604.54391
605.199
605.36011
605.39583
605.39253
605.40788
605.44885
605.44124
605.32743
604.77093
605.00752
605.07468
605.07733
604.99538
604.75195
605.30843
605.4264
605.40749
605.39528
605.40552
605.42964
605.4229
605.27813
604.65111
604.86762
604.79413
604.85248
604.61578
605.09777
608.78571
608.65823
605.82377
605.00439
604.87728
604.92917
604.93098
604.7505
604.25798
604.44433
604.51921
588.79729
588.73702
589.27819
591.08203
590.44648
589.61153
589.62413
589.38732
589.58995
590.17799
591.12048
589.05135
588.96629
588.71137
589.35881
589.93168
589.24991
589.17292
590.627
589.92107
589.9453
590.69787
589.25224
589.39824
590.21954
589.67974
589.44119
589.46812
589.63128
590.21929
589.35355
589.23263
590.62649
589.91848
589.94456
590.67089
589.20194
589.39998
590.03188
589.7297
589.00938
589.6833
589.1964
590.92458
588.22135
587.71776
590.4568
590.6933
589.64431
590.31662
588.95141
588.75634
589.82248
588.88548
588.3222
588.49271
589.87874
589.97903
590.17648
590.65406
590.63721
590.33939
590.23277
590.19462
590.35212
590.19545
588.77248
588.84981
590.42708
590.26372
589.81519
589.45148
589.32649
588.15338
588.29769
589.56644
589.53033
589.72347
590.27017
590.81333
588.67861
588.5731
603.45718
603.27338
607.04384
607.55939
617.43101
608.14666
607.53005
605.82565
607.68677
616.9155
607.27433
602.98118
603.16063
607.11593
606.86232
604.93152
590.09597
589.74671
590.49896
590.41346
590.43947
589.71052
590.37637
591.00654
588.81458
589.08988
603.38863
603.20632
606.97751
616.97216
607.33565
607.90643
607.47926
605.32934
606.07782
610.48168
618.67435
609.98682
609.9695
610.48039
607.78608
603.32164
603.34256
607.61938
609.84982
609.38967
618.47557
607.98715
608.20431
604.55203
589.80551
590.58604
590.02769
590.39252
588.41292
587.91385
603.55261
607.71197
608.33093
618.20396
607.92475
603.58414
607.54725
605.70317
623.43806
624.72998
623.75268
621.90051
623.26999
622.78428
623.89603
646.10957
671.63056
672.57679
671.10111
645.43886
646.51271
647.58137
645.87703
671.8447
672.91293
671.17134
645.87695
646.26344
671.73657
671.97428
646.40986
624.06654
605.38512
605.82841
605.20312
605.75268
605.55217
604.44908
623.1531
625.18066
626.05587
624.003
625.08133
626.19509
606.16911
606.089
603.75962
603.9409
604.45784
605.00884
606.32221
624.37535
623.91367
626.31576
627.18795
629.51232
614.35287
606.89099
604.6719
604.26634
604.12687
604.53111
606.6796
614.14754
613.78641
613.65923
613.74251
613.9636
630.15887
630.21175
628.29958
628.1155
607.59906
590.5188
590.45055
589.3925
582.63064
579.58898
578.95206
578.92932
579.55879
582.55547
583.42783
584.94208
585.76725
585.87495
585.07175
583.75013
582.92007
580.01565
579.40694
579.40372
580.00999
582.92787
583.76856
585.16409
585.98078
585.98043
589.68104
590.49566
590.17535
588.37271
588.75645
590.75711
590.35881
590.37127
590.77663
588.74344
588.38427
590.14946
590.47055
589.66018
585.93225
585.84212
584.99418
583.47935
582.56695
579.52475
578.87445
578.93495
579.60091
582.70988
583.62376
585.03014
585.87318
585.81401
584.98195
583.51997
583.16568
580.99344
575.26859
566.59645
557.38893
551.63935
551.67579
557.47011
566.6787
575.30597
581.0607
583.26989
583.81963
589.78471
590.98932
590.91025
590.89359
591.1064
588.66794
580.09593
582.98115
581.80819
578.06896
566.84311
559.41423
553.25252
546.0909
540.56688
535.60253
533.29913
533.28071
535.55339
540.49071
545.98051
553.11846
559.31282
566.68496
553.17167
545.79214
537.13363
530.62172
524.37481
521.6035
521.62411
524.43006
530.715
537.26882
545.96657
553.30674
546.25263
557.85179
571.76475
576.79381
575.80821
579.49405
579.49232
588.65664
591.09824
590.88767
590.90276
590.9789
589.75947
582.96365
580.09045
576.79541
575.80354
569.88459
569.88497
552.26057
535.96042
540.83819
530.96827
537.40407
528.01772
519.44893
512.21888
508.36717
508.34426
512.15213
519.33373
527.84959
537.18761
546.08678
557.61942
540.63107
530.7063
519.36876
508.3212
499.32802
494.32888
494.35959
499.41337
508.46718
519.57914
512.44896
524.78692
522.0311
533.70602
533.6935
552.26492
535.93281
524.74502
522.01058
508.6143
508.64351
494.49511
499.50885
488.74909
482.60387
482.56872
488.64902
499.33588
512.20208
524.47787
535.71391
551.93341
533.4378
521.69749
508.37521
494.30565
482.53138
475.77344
475.81034
482.64222
482.59411
494.45846
499.41627
512.37922
519.50889
530.92502
540.81203
557.87283
571.77578
578.06374
581.78144
583.23798
583.78938
585.16979
585.89896
584.44912
581.04324
575.35291
566.90605
553.36462
546.25319
537.39705
527.98973
519.41465
508.37285
499.30092
488.63465
482.47957
475.75848
475.72257
482.48726
494.27455
508.35045
521.67957
533.42574
551.93612
535.68988
524.44264
512.14559
499.25614
488.54249
482.44805
494.21791
494.23994
508.32992
512.17794
524.49479
530.77278
537.31948
546.03546
553.32123
559.45872
566.85295
557.72001
546.1401
540.63494
535.67729
533.3923
521.7018
521.69109
508.31355
512.12942
499.23144
508.24728
519.31563
530.67457
540.61076
557.63926
546.09488
537.19548
527.84417
519.3229
530.70717
524.46004
535.65451
533.38538
552.0218
552.02847
569.71895
571.63206
578.00796
581.01351
583.20635
585.89289
586.7658
593.3615
592.26752
589.18301
588.06423
581.80438
581.05298
581.06393
581.81566
588.11442
589.24586
592.20912
585.11681
585.83746
586.7013
585.80233
583.07224
581.5379
576.37539
575.32553
575.32531
576.36828
581.59472
583.12779
585.79199
586.68509
585.80518
584.3365
580.91869
577.78762
571.26065
569.2716
569.29882
571.30479
577.7829
580.89553
584.36407
590.3291
592.19683
589.08678
587.9271
581.51692
580.73261
580.71692
581.49471
587.97362
589.14085
592.18598
593.31476
600.04649
592.21221
590.31548
587.04562
596.16365
584.44468
577.36094
587.72324
575.83683
558.01976
563.66122
572.70514
581.5839
587.12143
589.22275
596.24002
588.08333
581.66784
577.9365
571.61566
576.60958
575.59727
569.68274
569.67642
575.58022
576.59041
571.6148
577.90766
566.74554
559.36766
553.20703
546.06269
540.59091
557.68577
566.79062
575.30784
580.9424
583.08373
581.59932
587.99252
581.78042
581.02762
581.0497
581.80851
588.06105
577.71227
584.57877
572.81759
562.78152
563.66227
565.33979
559.34174
557.14628
549.49317
557.19771
559.36477
554.43812
543.7121
548.8214
548.80562
544.10693
544.77821
548.87245
538.88886
534.09584
540.06967
530.78219
540.12787
548.92006
563.9205
548.89873
548.9626
543.77314
538.96959
544.87282
544.25029
534.18192
527.37609
538.51061
558.34841
576.22892
576.21504
588.0294
577.69314
584.51587
596.12154
589.11367
587.02497
581.53951
572.80643
563.89479
558.33796
536.55144
536.56675
535.71777
537.38834
537.34659
530.97113
528.94927
524.83702
511.20496
515.04463
522.32768
526.35432
534.84058
526.31668
522.29033
510.92048
514.36741
504.82659
518.91088
530.8637
537.27185
538.3397
536.39883
535.60581
537.21388
528.84796
524.73707
527.26737
514.99132
511.17153
515.03411
499.57166
496.60128
501.70915
490.72182
501.71796
504.83293
518.96436
515.06609
499.54404
496.5772
484.43039
486.83815
493.36952
486.88085
484.46759
477.46027
479.581
481.88631
489.52186
502.83417
519.25666
523.21507
530.76751
539.33906
543.81677
534.74051
522.06614
534.79166
530.81102
518.18911
508.27904
511.822
527.24778
522.95701
506.15405
509.7106
528.05149
546.21077
578.32802
584.06359
592.38732
600.44208
590.1932
582.47287
574.12915
568.82624
568.85551
587.74512
575.86273
577.39304
584.41898
596.09828
586.99042
581.56144
572.75125
563.72229
558.05204
536.41956
535.62317
537.23979
537.3032
538.38187
527.31456
524.7576
528.86778
530.89736
538.94334
544.82585
544.17289
548.88735
548.87304
548.9197
543.76759
540.16718
534.16933
522.38296
515.04985
511.19285
515.05154
518.95674
504.88898
499.59578
496.63183
501.78587
511.04085
514.45954
526.38449
534.92468
530.90962
522.48903
526.46477
519.09902
504.94445
493.44618
486.9094
484.50256
490.81185
484.53063
477.49625
479.61337
486.92428
499.66679
496.73529
501.86039
515.23657
511.41254
515.21233
529.16745
531.17653
539.13499
543.91136
554.54114
559.42875
557.25377
562.86748
572.82793
563.72154
565.40483
559.43197
557.31474
549.62866
540.29911
549.06807
563.93729
549.00132
549.07555
544.98925
544.43196
534.3898
527.62508
538.73245
558.39642
537.54815
537.51588
535.88386
536.80471
525.1052
525.07877
511.38015
496.69497
484.47848
477.44046
477.40597
484.38278
496.54276
511.17674
524.81328
528.91431
535.68589
537.29603
537.33667
538.4788
527.3294
530.91029
538.87833
544.7886
544.21206
534.12157
540.08663
548.88993
548.80774
548.85538
543.67523
534.72316
526.23466
518.87398
515.03173
499.49916
504.71307
501.62278
514.97551
522.24437
510.81174
514.21462
526.1796
522.22268
530.72591
540.08886
537.21187
545.87745
553.23651
557.23239
559.35298
565.30951
554.4282
549.53035
557.21464
572.74449
562.81752
563.6303
559.31206
548.75375
543.66989
548.79859
538.85144
534.11991
544.18082
563.74683
548.86295
544.70708
537.18457
530.81167
518.74997
504.63912
493.22137
486.78283
479.51822
486.71227
484.32849
490.59802
501.57267
496.4486
499.36215
514.85652
511.07274
514.90387
527.28348
524.75461
528.79715
537.12243
535.51263
558.14115
538.41322
536.47568
536.48242
524.76368
511.08737
496.46992
484.35917
486.7374
479.5483
486.86225
493.28707
490.6819
501.75338
504.81287
499.61599
515.17432
518.99734
515.15257
522.38837
510.9124
501.63425
504.68808
499.38073
514.86745
518.77959
514.94468
522.2916
526.22661
514.2881
526.32866
534.78579
530.82966
540.24304
534.31823
527.5723
531.1088
529.12902
537.45596
535.8486
558.38805
536.78795
538.69475
537.48958
544.89592
539.03002
548.9514
543.79675
548.89801
563.91356
544.38579
549.02694
557.34077
549.65043
540.15921
534.1662
527.31058
530.82724
528.80366
537.12764
535.51807
558.14175
538.42931
537.19372
544.72673
538.87948
548.81219
543.70054
548.77542
563.75662
544.21359
548.9098
557.3014
572.76701
559.38282
554.51787
565.35793
559.41321
572.82382
562.89153
563.6807
581.52834
590.11887
582.54307
574.319
569.13444
569.14961
574.3691
582.58901
590.15919
582.49223
574.17277
584.0981
578.35517
546.24067
558.61122
569.16221
595.38789
609.95318
623.9804
625.8258
623.78414
623.3095
605.65188
604.96713
605.3257
623.15194
624.624
624.69949
622.95502
621.87163
622.98404
624.76652
625.50775
605.63596
605.76116
602.15178
602.27394
624.073
625.59109
625.79732
625.18391
626.0461
604.08694
589.50292
590.50565
591.19285
608.055
606.33191
606.66163
627.23964
627.28206
606.47864
590.10762
588.09336
588.04804
590.0503
590.18255
590.27691
607.45003
607.37938
628.22911
630.12897
629.96125
627.94712
607.44753
590.41113
590.33672
589.28502
589.41809
590.39741
591.04078
590.76789
590.24365
589.73152
589.58317
589.71363
588.60566
588.60918
589.74365
589.67994
589.9212
590.33881
590.52449
588.89559
589.03013
590.26961
590.34244
590.49982
590.97831
591.08043
591.06712
590.92258
590.36055
590.10037
589.94867
588.67976
588.58126
603.21195
603.42893
607.4889
608.10651
607.50498
617.36065
606.97412
623.82828
624.23196
626.99313
629.28117
649.46815
650.35366
650.76435
650.85495
650.57294
649.72626
673.7718
700.96388
730.97555
732.47377
731.29108
730.264
699.69404
700.88037
699.30347
729.99921
731.4813
733.35705
730.77914
700.12239
701.22087
699.23731
729.86957
730.41913
699.83282
700.08903
730.65132
733.6433
733.11026
731.82959
735.10696
704.40252
702.71515
674.16832
675.72196
649.02161
646.9415
647.93774
674.10518
674.58026
648.30425
650.32164
650.10778
676.92045
677.27069
706.18855
703.03294
702.50588
705.72906
736.53492
737.08322
737.83313
738.78608
737.8914
736.00789
733.5417
703.00488
700.90314
672.97519
647.49379
648.23448
674.60901
676.42442
674.47131
649.28784
650.0584
651.27748
650.57841