/*--------------------------------*- C++ -*----------------------------------*\
  =========                 |
  \\      /  F ield         | OpenFOAM: The Open Source CFD Toolbox
   \\    /   O peration     | Website:  https://openfoam.org
    \\  /    A nd           | Version:  7
     \\/     M anipulation  |
\*---------------------------------------------------------------------------*/
FoamFile
{
    version     2.0;
    format      ascii;
    class       volScalarField;
    location    "400";
    object      omega;
}
// * * * * * * * * * * * * * * * * * * * * * * * * * * * * * * * * * * * * * //

dimensions      [0 0 -1 0 0 0 0];

internalField   nonuniform List<scalar> 
24866
(
434.20719
442.17437
443.5124
505.56771
565.84453
564.66482
560.06414
566.03451
566.72817
559.48511
562.59959
562.6378
559.58489
566.79204
565.96693
560.29261
564.13953
566.09635
564.31664
562.74008
555.39844
567.91584
581.73025
575.30954
561.73229
551.89267
563.17227
576.25423
575.04446
557.21446
565.05175
564.60969
564.60879
565.05188
557.23628
575.05178
576.31316
563.23001
551.83269
561.6632
575.2921
581.73148
567.92266
555.39971
562.80242
564.2788
566.18355
564.06175
560.34661
565.82941
566.89904
559.54703
562.60063
562.63096
559.6271
566.67694
566.10135
559.95554
564.81558
565.71432
569.42396
566.27558
569.48324
569.94375
561.60869
565.43058
572.32046
571.15237
561.83263
562.14221
562.16777
561.87948
571.17229
572.32299
565.45646
561.51731
569.49893
569.26298
565.25684
567.58815
567.18246
555.71149
557.48594
563.75532
565.82117
573.04391
565.90128
558.90123
567.05242
574.0208
565.85373
559.24786
564.18105
564.59328
563.87378
562.0127
560.41776
562.89272
562.02093
563.34168
563.04231
563.45539
562.95416
563.67615
564.13955
564.14618
563.89681
564.29899
563.60856
562.7316
557.07876
568.82916
568.1697
565.10465
561.22209
563.13202
563.39945
563.73322
564.15976
564.40813
564.35682
563.99565
564.35465
563.78899
563.14694
562.7453
560.97006
561.89412
562.28837
563.12588
563.93706
564.52581
564.84598
564.68592
564.74778
564.54368
564.16195
563.90008
563.40091
563.61161
561.22543
557.08312
568.82813
568.1679
550.79378
551.16058
510.68085
503.39788
504.3901
504.39031
503.39755
496.1925
499.75576
555.68977
555.36826
501.56539
502.18447
491.07699
500.06221
499.26482
487.55279
483.11717
493.51224
501.39162
504.11796
505.58836
502.86301
498.15935
503.98401
504.41253
495.6483
496.10192
496.04848
495.5215
504.31898
504.00665
498.02863
503.25205
511.76481
512.62922
552.01908
552.37716
510.07648
495.5065
510.97811
504.26462
498.68555
562.24364
563.28353
562.24457
563.34109
562.69046
560.91053
561.87373
562.26373
563.09447
563.89342
564.46725
564.77701
564.84909
564.91789
564.75067
564.41294
564.15186
564.18632
564.30239
565.85871
562.7336
501.68238
504.2684
542.84347
555.70229
499.7317
496.19621
439.73716
441.98275
442.57115
442.57097
441.98109
439.73172
438.55186
439.85765
439.84047
435.85592
439.07133
438.71021
433.93815
430.94179
437.82419
440.91833
442.58518
443.42007
441.95831
441.45288
442.21841
442.70416
439.62923
439.60927
439.59513
439.54409
442.59918
442.17576
441.3444
392.59121
392.81286
393.31501
393.29374
392.85633
442.23645
503.35298
497.99557
504.07359
504.27829
495.68415
496.09224
496.0531
495.59524
504.41171
503.87809
498.22407
502.81127
505.65735
504.10321
501.4421
493.52532
483.13112
539.47565
560.30053
552.86152
499.2972
500.09291
491.09047
502.16394
501.52051
555.41512
544.09755
511.05705
506.22946
492.75984
508.86635
513.24666
512.41193
555.92957
574.04006
567.06412
558.89894
559.25139
565.81919
564.60038
564.14797
564.36459
564.69169
564.36267
564.53104
564.46954
564.18173
563.67628
563.07765
563.03358
563.33084
563.67825
563.89788
563.94379
563.79836
563.46728
564.00585
563.68707
563.88388
563.7579
557.49731
562.02772
562.96788
562.90913
563.05544
563.15666
563.13323
563.10148
563.0817
563.0347
563.3419
562.69753
562.2741
562.29626
562.75402
563.35563
562.03997
565.27429
560.43767
555.73039
567.22182
567.58237
550.16314
511.07319
509.15275
549.69522
506.84733
508.91708
493.12145
432.4985
440.95764
437.84043
430.9525
433.95697
487.60548
487.14662
503.39253
503.7194
544.0171
541.10881
504.89413
490.62346
508.61083
429.59182
438.72097
439.06896
435.84996
439.85378
439.86807
438.55197
389.88394
391.19129
392.46028
392.60325
392.60315
392.45905
391.1879
389.88442
390.39581
390.48679
388.40933
390.18174
389.83714
387.28175
385.68432
390.06301
391.84426
392.71151
393.24266
392.71944
392.69068
392.91773
393.27318
391.79745
391.91527
391.87185
391.69732
393.1783
392.85719
352.33614
352.29918
352.28419
352.50971
352.49992
352.31604
352.31376
392.59823
441.33386
442.23457
442.6257
439.64639
439.6066
439.60769
439.60991
442.68276
442.14218
441.47883
441.93086
443.4643
442.58746
392.71738
391.87251
390.07814
385.69504
387.298
389.84758
390.18344
388.40719
390.49329
390.39898
350.27901
350.00295
351.11496
351.8803
351.95201
351.95209
351.87939
351.11261
350.00276
350.27642
350.3748
349.19422
350.30429
350.02745
348.41646
347.44988
350.35869
351.53821
352.10628
352.46407
352.25665
352.38941
352.40201
352.64571
351.88412
351.98779
351.95587
351.80504
352.56205
318.97393
318.82911
318.89071
318.76297
318.86068
318.85699
318.78712
318.90785
318.86818
319.01332
352.60405
393.21651
391.80333
391.9151
391.88583
391.74986
393.2428
392.85835
392.69637
392.70038
393.26791
352.4775
352.11176
351.55805
350.37129
347.45931
348.42921
350.03591
350.30625
349.19338
350.37957
317.25115
317.13599
317.00108
317.90467
318.35883
318.40981
318.40986
318.35813
317.90297
317.00056
317.13384
317.24753
316.57057
317.28681
317.03973
315.93997
315.34944
317.35393
318.16125
318.57421
318.82999
318.76688
318.97063
318.89295
319.04543
318.66239
318.74483
318.71942
318.59857
290.90349
291.06903
290.98545
291.08782
290.9134
290.9453
290.94464
290.93216
291.10496
291.01858
291.10438
290.95306
318.66127
351.88526
351.98967
351.96934
351.84637
352.61234
352.35246
352.38393
352.2412
318.75371
318.83649
318.57843
318.1752
317.3641
315.35747
315.95001
317.04664
317.28881
316.57047
289.30258
289.69112
289.57292
289.53196
290.26297
290.52934
290.56973
290.56971
290.52877
290.26168
289.53129
289.5711
289.68834
289.30229
289.76652
289.53956
288.75543
288.40517
289.83576
290.4046
290.72321
290.91868
290.92909
291.15679
291.04415
291.1299
290.95559
291.02699
291.00645
267.72635
267.6367
267.6914
267.64875
267.7616
267.5809
267.5786
267.5794
267.59575
267.77758
267.67673
267.72241
267.67641
267.74452
291.02865
318.74706
318.73121
318.6313
319.0143
318.85195
318.96
291.14448
290.91785
290.92139
290.72634
290.41463
289.84397
288.41197
288.76344
289.54524
289.76844
266.64153
266.33975
266.56055
266.45307
266.47152
267.06402
267.22369
267.25759
267.25754
267.2232
267.06301
266.4708
266.45152
266.55833
266.33923
266.63972
266.43338
265.85923
265.6623
266.71557
267.13385
267.39141
267.54984
267.59827
267.81977
267.70111
267.74324
267.67977
267.74318
247.9542
247.94007
247.86242
247.86272
247.84512
247.95271
247.78736
247.76803
247.76946
247.79934
247.96713
247.86878
247.88967
247.89479
247.95536
247.94785
267.73492
291.01632
290.92996
291.10219
291.01051
267.67355
267.80755
267.58877
267.5506
267.39378
267.1413
266.7223
265.66809
265.86573
266.4381
246.80022
246.98213
246.78756
246.9125
246.82315
246.87584
247.35683
247.45895
247.48847
247.48841
247.45854
247.35602
246.87512
246.82181
246.91068
246.78691
246.98045
246.79624
246.36872
246.26768
247.06289
247.3857
247.60116
247.73495
247.80196
248.00101
247.89098
247.907
247.89863
230.86768
230.91565
230.90373
230.83706
230.81328
230.80969
230.90496
230.76342
230.73646
230.73812
230.77325
230.91779
230.82982
230.83661
230.86373
230.91666
230.91074
230.85297
247.88102
267.65864
267.71915
247.88626
247.86832
247.98965
247.79397
247.73476
247.60304
247.39143
247.0685
246.27267
246.37409
229.57425
229.89512
230.05519
229.93103
230.0011
229.93137
230.0012
230.39209
230.46387
230.49011
230.49005
230.46352
230.39142
230.00052
229.93021
229.99959
229.93031
230.05363
229.89172
229.56974
229.5273
230.13944
230.3993
230.58354
230.69932
230.77388
230.94475
230.84948
230.85119
216.00032
216.0262
216.06712
216.05701
216.00012
215.96771
215.97118
216.05199
215.93518
215.90578
215.90747
215.94338
216.06334
215.98842
215.98792
216.02232
216.06801
216.06331
216.01384
215.9851
230.83342
230.83073
230.93451
230.76714
230.69871
230.5851
230.40387
230.14421
229.53164
214.91406
214.92165
215.16542
215.30472
215.22705
215.26565
215.21371
215.28984
215.60798
215.66344
215.68702
215.68696
215.66314
215.60742
215.28921
215.21269
215.26436
215.22631
215.30327
215.16248
214.91779
214.91024
215.38876
215.60448
215.76415
215.86577
215.94153
216.0847
216.0056
202.93918
202.93116
202.95894
202.99363
202.98497
202.93655
202.90294
202.90941
202.9762
202.88158
202.85259
202.85421
202.88852
202.98623
202.92429
202.9205
202.95523
202.9944
202.99065
202.9485
202.91808
202.92598
215.98994
216.07559
215.93582
215.86497
215.76548
215.60822
215.39287
202.4022
202.02305
202.01043
202.19715
202.31757
202.27073
202.29135
202.25413
202.3302
202.5898
202.63581
202.65717
202.65712
202.63556
202.58933
202.32962
202.25324
202.29025
202.26999
202.31623
202.19459
202.0071
202.01968
202.39864
202.58138
202.72101
202.81096
202.88437
203.00311
191.3887
191.33796
191.32944
191.35577
191.38509
191.37762
191.33641
191.30489
191.31215
191.36651
191.2905
191.2634
191.26491
191.29644
191.3754
191.3251
191.3202
191.35229
191.38576
191.38275
191.34689
191.31816
191.32673
191.38158
202.99506
202.87949
202.81011
202.72214
202.58449
191.02075
190.86441
190.5606
190.53687
190.68103
190.78474
190.75841
190.76893
190.74329
190.81587
191.02855
191.06845
191.08795
191.0879
191.06823
191.02815
190.81534
190.74251
190.76798
190.75769
190.7835
190.67877
190.53397
190.55762
190.86129
191.01812
191.14107
191.22119
191.29037
180.9223
181.00403
180.96427
180.95633
180.9799
181.00465
180.99817
180.96305
180.93486
180.94183
180.98571
180.92476
180.90028
180.90166
180.92991
180.99361
180.95318
180.94827
180.97666
181.00525
181.00281
180.97231
180.94656
180.95463
180.99772
180.9186
191.28614
191.22034
191.14203
180.78735
180.67988
180.54459
180.29844
180.26909
180.38125
180.47043
180.45772
180.4628
180.44602
180.51348
180.68864
180.72408
180.74202
180.74198
180.72389
180.6883
180.51301
180.44535
180.46198
180.45705
180.4693
180.37927
180.26656
180.29579
180.54186
180.67764
180.78653
180.85824
171.53611
171.59476
171.66311
171.63224
171.6253
171.64576
171.66664
171.66099
171.63101
171.60642
171.61266
171.64794
171.59904
171.57744
171.57868
171.60354
171.655
171.62269
171.61824
171.64278
171.66719
171.6652
171.63923
171.6168
171.62389
171.65749
171.59147
171.53527
180.85741
180.91757
180.99005
180.79287
180.83997
180.94065
180.44709
180.54865
180.69155
180.75137
180.67674
180.60256
171.32591
171.17864
171.24042
171.38556
171.41746
171.43409
171.43403
171.41731
171.38531
171.24007
171.17812
171.18812
171.18582
171.18911
171.11172
171.02334
171.05489
171.25638
171.37472
171.47166
163.04762
163.10572
163.15907
163.21667
163.19287
163.18704
163.20448
163.22206
163.21706
163.19142
163.17027
163.17565
163.20403
163.16469
163.14592
163.14709
163.1687
163.21039
163.1846
163.18075
163.20168
163.22253
163.22091
163.19882
163.17957
163.18556
163.21163
163.15612
163.10489
163.04813
171.47232
171.37662
171.25875
171.0572
171.02552
171.11341
171.19006
171.18637
171.18876
162.79922
162.79408
162.85019
162.97126
163.00017
163.01565
163.01566
163.00013
162.97118
162.85008
162.79387
162.79894
162.7977
162.79513
162.72855
162.65877
162.69066
162.85729
162.96097
155.3149
155.39261
155.44511
155.49342
155.54237
155.52413
155.51929
155.53402
155.54881
155.54435
155.52234
155.50425
155.50884
155.53174
155.49997
155.48389
155.48497
155.50359
155.53753
155.51691
155.51364
155.53138
155.5492
155.54789
155.52905
155.51267
155.51764
155.53777
155.49069
155.44422
155.39286
155.31601
162.96254
162.85927
162.69256
162.66048
162.72981
162.79573
162.79794
155.17225
155.17332
155.17184
155.22262
155.32436
155.35067
155.36518
155.36527
155.35088
155.3247
155.2231
155.17237
155.17387
155.17284
155.1665
155.10911
155.0536
155.08468
155.22372
148.25484
148.33506
148.40489
148.45238
148.49595
148.53799
148.52402
148.51995
148.53241
148.54488
148.54085
148.52182
148.50629
148.51026
148.52889
148.503
148.48938
148.4904
148.50632
148.53423
148.51762
148.51478
148.52987
148.54519
148.54412
148.52798
148.51399
148.51814
148.5337
148.49328
148.45124
148.40464
148.33536
148.25513
155.22512
155.08587
155.05448
155.10949
155.16626
148.20038
148.20872
148.21
148.21111
148.25712
148.34337
148.36731
148.38106
148.38135
148.36813
148.34472
148.25907
148.21349
148.21257
148.21139
148.2027
148.153
148.10836
148.13792
141.76594
141.86472
141.93482
141.99748
142.04032
142.07941
142.11613
142.10528
142.10169
142.11247
142.12311
142.11941
142.10272
142.08907
142.09268
142.10809
142.08651
142.07512
142.07608
142.08961
142.1131
142.09951
142.09686
142.10999
142.12334
142.12246
142.10845
142.09623
142.09985
142.11198
142.07659
142.03862
141.99621
141.9335
141.86272
141.76252
148.13766
148.10745
148.1514
141.76908
141.81151
141.82119
141.82275
141.8255
141.86747
141.94143
141.96303
141.97636
141.97712
141.9653
141.94514
141.8728
141.83215
141.83004
141.82874
141.81863
141.77516
141.73846
135.87084
135.89544
135.97873
136.03847
136.09421
136.13247
136.16718
136.20023
136.19147
136.18797
136.19796
136.20737
136.20393
136.18884
136.17611
136.17969
136.1928
136.17377
136.1644
136.16533
136.17674
136.19758
136.18612
136.18336
136.19549
136.20752
136.20681
136.19427
136.18289
136.18634
136.19605
136.16389
136.12964
136.09089
136.03387
135.972
135.88539
135.85749
141.73358
141.83957
141.89452
141.95962
141.98348
141.95928
141.92871
136.03739
135.93909
135.97789
136.04234
136.06134
136.07481
136.07658
136.06677
136.05117
135.99054
135.95501
135.95324
135.95228
135.94136
135.90251
130.47225
130.44223
130.46242
130.53133
130.57901
130.6273
130.66062
130.69077
130.72212
130.71446
130.71066
130.7212
130.73017
130.72693
130.71257
130.69937
130.70323
130.71485
130.69617
130.68859
130.6895
130.69907
130.71948
130.70936
130.70622
130.71874
130.73026
130.72969
130.71779
130.70591
130.70956
130.7177
130.68655
130.65566
130.62012
130.56803
130.51534
130.43931
130.41202
130.43744
135.88682
135.92387
135.93416
135.93579
130.48174
130.48418
130.52076
130.57819
130.59387
130.60835
130.6121
130.60562
130.59721
130.54795
130.5186
130.51947
130.5198
130.50844
125.46831
125.43233
125.39967
125.41254
125.46626
125.49818
125.53738
125.56479
125.58984
125.62187
125.61446
125.61011
125.6231
125.6326
125.62947
125.61482
125.59928
125.60365
125.61441
125.5933
125.58721
125.58811
125.59614
125.61892
125.60953
125.60579
125.62062
125.63266
125.63223
125.61995
125.60568
125.60977
125.61703
125.58405
125.55615
125.52341
125.47572
125.43341
125.36554
125.33847
125.36243
125.39221
130.47025
130.4806
125.40213
125.40189
125.40157
125.43678
125.48936
125.50043
125.51719
125.52446
125.52369
125.52695
125.49046
125.4698
125.47667
125.47994
120.79507
120.78329
120.74459
120.70406
120.70454
120.73978
120.75012
120.777
120.79688
120.81601
120.85142
120.84373
120.83887
120.85661
120.86778
120.86478
120.84874
120.82864
120.83343
120.84369
120.81696
120.81198
120.81285
120.81973
120.84803
120.839
120.83479
120.85418
120.86786
120.86756
120.85376
120.83487
120.8393
120.84606
120.80803
120.78262
120.75237
120.70883
120.67885
120.61751
120.5906
120.61569
120.64368
120.65276
120.65005
120.64471
120.67896
120.72831
120.73298
120.75345
120.7664
120.77516
120.79655
120.77657
120.76934
120.78667
116.43161
116.44746
116.4356
116.39137
116.33754
116.31779
116.3278
116.30914
116.31897
116.3293
116.34186
116.38292
116.37527
116.37077
116.39518
116.40909
116.4063
116.38797
116.36159
116.36603
116.37552
116.34074
116.33626
116.33708
116.34334
116.37957
116.37114
116.36721
116.39294
116.40911
116.40892
116.39274
116.36739
116.37136
116.37728
116.33157
116.30792
116.2799
116.24062
116.22478
116.16974
116.14372
116.17202
116.19904
116.20694
116.20094
116.18878
116.22153
116.26806
116.26475
116.2899
116.31085
116.33427
116.38164
116.38524
116.39899
112.37271
112.42399
112.4482
112.4364
112.38543
112.31459
112.26265
112.23498
112.18003
112.16748
112.16694
112.17346
112.22019
112.21521
112.21351
112.24437
112.26097
112.25855
112.23828
112.20613
112.20821
112.21495
112.17279
112.16819
112.16891
112.17507
112.21848
112.21261
112.21099
112.24259
112.26091
112.2608
112.24248
112.21105
112.21237
112.21524
112.16215
112.13918
112.11309
112.07861
112.07662
112.0306
112.00834
112.03911
112.06405
112.07017
112.06138
112.04304
112.07208
112.11346
112.10238
112.13159
112.16192
112.20551
112.28639
112.3262
108.64534
108.74565
108.81504
108.8433
108.83144
108.77796
108.69125
108.58586
108.49526
108.39721
108.35944
108.3495
108.35187
108.40004
108.40556
108.41179
108.44456
108.46192
108.45994
108.44012
108.40727
108.40252
108.39998
108.35677
108.3529
108.35349
108.35857
108.40275
108.40589
108.4109
108.44349
108.46188
108.4617
108.44337
108.41078
108.40473
108.39773
108.34313
108.32095
108.29643
108.26622
108.27406
108.24801
108.2368
108.26171
108.27755
108.28037
108.27236
108.25367
108.27386
108.30193
108.28691
108.31791
108.35584
108.42257
108.54417
105.18665
105.40846
105.59938
105.67996
105.69885
105.68676
105.64434
105.54878
105.35386
105.14143
104.98507
104.92941
104.91741
104.91463
104.95153
104.98835
105.00826
105.03231
105.05775
105.05847
105.0319
105.00712
104.99055
104.9597
104.93115
104.93584
104.93618
104.93226
104.96146
104.99282
105.00933
105.03211
105.05776
105.05967
105.03404
105.00897
104.99044
104.95444
104.91385
104.89996
104.87661
104.84386
104.85139
104.87986
104.89417
104.88809
104.87769
104.88074
104.8775
104.87084
104.87111
104.86176
104.85535
104.88836
104.92615
105.00897
101.87374
102.131
102.69673
103.07301
103.09376
103.0715
103.06093
103.06168
103.02633
102.64724
102.09003
101.85236
101.75033
101.74804
101.80855
101.73044
101.94154
101.94707
101.94279
102.08068
102.07976
101.94295
101.94954
101.94917
101.74813
101.83991
101.79479
101.7949
101.84029
101.74901
101.95011
101.9493
101.94305
102.08058
102.08033
101.94397
101.9496
101.94711
101.74091
101.8218
101.7583
101.73576
101.75567
101.68812
101.96388
101.88654
101.81255
101.79796
101.92078
101.81337
101.82554
101.83242
101.64987
101.7547
101.7208
101.7474
99.355385
99.393708
99.660655
100.6277
101.38249
101.19911
101.13635
101.1247
101.16965
101.34121
100.58312
99.625767
99.371236
99.363584
99.358118
99.393059
99.373346
99.465112
99.480412
99.487891
99.492801
99.493526
99.491419
99.485903
99.475733
99.397505
99.432692
99.430025
99.43067
99.43166
99.396096
99.474886
99.485794
99.487358
99.492676
99.494118
99.491174
99.487261
99.474377
99.387153
99.418535
99.390239
99.38927
99.34953
99.400992
99.915728
99.874843
99.484664
99.389694
99.381113
99.381602
99.378551
99.363758
99.302781
99.336237
99.335613
97.092323
97.078121
97.156675
97.425677
97.346704
97.205525
97.202192
97.166359
97.197891
97.295059
97.419825
97.11433
97.117261
97.088402
97.204649
97.282691
97.18635
97.164794
97.382436
97.273812
97.275897
97.388877
97.170217
97.200028
97.316785
97.24377
97.199255
97.203973
97.236847
97.318304
97.195024
97.16957
97.379842
97.272851
97.276792
97.387392
97.166468
97.206671
97.294609
97.260059
97.132524
97.231739
97.138833
97.390253
97.002555
96.925269
97.3082
97.34969
97.195101
97.299921
97.096125
97.077841
97.241547
97.110948
97.058069
97.099245
97.218892
97.114076
97.071186
97.115565
97.162993
97.11307
97.056971
97.07368
97.164606
97.26877
97.147307
97.14742
97.308591
97.15454
96.960312
96.850018
97.002652
97.198516
97.233413
97.047637
96.865296
96.953779
97.158842
97.347214
97.091175
97.108061
99.371003
99.320304
99.76052
99.836302
101.25935
99.950404
99.862543
99.488761
99.88027
101.18911
99.816006
99.298818
99.326711
99.799991
99.75941
99.363553
97.250235
97.155067
97.207307
97.194207
97.194711
97.111481
97.24824
97.375552
97.116689
97.186519
99.358617
99.322436
99.765513
101.19728
99.831439
99.914234
99.840302
99.410472
99.482652
100.23537
101.3885
100.10397
100.09492
100.23921
99.882116
99.23753
99.24984
99.854279
100.13272
100.08562
101.34951
99.816848
99.897074
99.437386
97.239569
97.306104
97.214941
97.290087
97.057741
96.980461
99.372636
99.874071
99.95762
101.35245
99.896058
99.372958
99.840339
99.468005
101.90163
102.11141
101.90268
101.69037
101.92933
101.79851
102.01388
105.05156
108.52997
108.59514
108.45791
104.95986
105.04874
105.07198
104.98447
108.52079
108.60326
108.43732
104.9919
105.02778
108.49444
108.52198
105.04184
101.9852
99.408591
99.379165
99.295418
99.437422
99.235905
99.175386
101.74072
101.90885
101.97589
101.87708
102.01712
102.03199
99.328569
99.27263
99.046961
98.859686
99.019706
99.255964
99.553906
102.03674
101.84738
102.0713
102.37851
102.75986
100.70454
99.735262
99.387764
99.322616
99.303117
99.363143
99.693166
100.6639
100.59854
100.58042
100.59209
100.62821
102.83059
102.83292
102.46889
102.45529
99.660193
97.237976
97.107006
97.016837
96.82052
97.289088
97.3461
97.336745
97.273173
96.795401
96.705932
96.347919
96.381808
96.389706
96.353944
96.728204
96.816495
97.318532
97.377656
97.376423
97.31665
96.816234
96.727106
96.35968
96.395056
96.394887
96.866481
97.101075
97.215277
97.065505
97.126493
97.35683
97.272183
97.274168
97.360874
97.126461
97.070126
97.214492
97.100319
96.867315
96.400762
96.3936
96.358742
96.730216
96.8244
97.346708
97.416078
97.441678
97.378768
96.861943
96.767303
96.375265
96.409805
96.405025
96.372311
96.73382
97.287465
97.443287
97.884012
99.200284
100.99079
102.16174
102.14302
100.94443
99.147255
97.848275
97.429102
97.276112
96.735226
97.038175
97.12851
97.25058
97.233133
97.177738
97.222389
97.305746
96.819679
97.424755
97.742409
99.111064
100.49016
101.58658
103.36436
104.49037
105.78883
106.25827
106.26907
105.81426
104.53092
103.42494
101.65498
100.55117
99.175903
101.64439
102.94298
104.99248
106.31246
107.91501
108.50232
108.49129
107.88559
106.26566
104.92878
102.86591
101.57528
103.31471
100.84611
98.808815
98.277643
98.382384
97.360403
97.357
97.219257
97.176188
97.232032
97.248268
97.125803
97.032166
96.810069
97.298003
98.267662
98.379653
99.060056
99.064425
101.97518
105.66489
104.40737
106.18535
104.88641
106.66652
108.53134
110.33074
111.28046
111.28896
110.36682
108.58958
106.73334
104.97546
103.39669
100.92953
104.49874
106.28864
108.57354
111.2575
113.62862
114.97041
114.96312
113.59524
111.19278
108.4897
110.25513
107.76764
108.35214
106.12568
106.13086
101.97366
105.6773
107.77572
108.35872
111.188
111.17806
114.89757
113.55481
116.52369
118.27058
118.27908
116.55551
113.61813
110.34286
107.88097
105.76911
102.08128
106.22638
108.47121
111.27345
114.97103
118.28412
120.24352
120.23514
118.24705
118.26
114.90712
113.57656
110.27534
108.51018
106.19627
104.41531
100.83429
98.796929
97.725736
97.412112
97.259489
96.722608
96.359204
96.646302
96.726363
97.410217
97.824908
99.083939
101.55037
103.31429
104.88572
106.67664
108.54739
111.22651
113.62867
116.56301
118.30958
120.25304
120.26465
118.30158
114.97836
111.28004
108.46813
106.22387
102.06921
105.76576
107.87999
110.35917
113.64668
116.5962
118.32315
115.00501
114.99908
111.29982
110.35769
107.87171
106.24997
104.91464
102.84089
101.5607
100.47157
99.097303
100.87786
103.35053
104.47243
105.7695
106.23597
108.47413
108.47718
111.30975
110.37495
113.66013
111.27502
108.58321
106.28303
104.48785
100.90249
103.37166
104.9553
106.73043
108.59037
106.28114
107.89075
105.7813
106.24253
102.05347
102.04807
99.105084
98.836235
97.738006
97.417666
97.267838
96.647294
96.628631
97.633777
97.575928
98.393945
98.516184
99.598024
99.683099
99.685616
99.604985
98.52738
98.406475
97.588963
96.365013
96.659414
96.637957
96.657947
97.283693
97.443919
98.337805
98.460623
98.484683
98.370672
97.47796
97.318766
96.675739
96.654102
96.677516
96.765646
97.474454
97.810784
98.923222
99.201292
99.177495
98.888326
97.772182
97.437806
96.743933
97.527301
97.587508
98.416827
98.543546
99.660146
99.750667
99.77641
99.691732
98.575794
98.449617
97.606761
97.662434
98.515953
97.609131
97.54929
98.368495
99.564245
98.619332
99.816969
100.91386
100.02809
102.87424
101.73955
100.00681
98.71168
98.335148
98.417843
99.526324
98.540965
97.4392
97.766997
98.823807
98.275698
98.383192
99.088457
99.073893
98.372604
98.257032
98.801475
97.731959
99.126791
100.50766
101.60611
103.38634
104.4946
100.89961
99.12333
97.838299
97.408435
97.256444
97.410175
98.512863
99.578255
99.664244
99.675507
99.594511
100.80471
99.716105
98.57729
99.980356
101.34181
102.88403
104.12327
103.5501
102.27204
103.55402
102.26124
103.54735
104.2132
106.93117
106.30719
104.36322
105.25829
107.04101
108.04126
107.7937
107.00595
105.84249
107.46967
105.8236
104.32975
101.67311
106.28675
108.01594
106.91844
107.7709
107.02464
105.22603
106.98214
108.76186
106.72649
102.78667
99.91673
99.901457
100.792
99.697588
98.545533
99.499555
98.391303
98.306541
98.674482
99.942248
101.6548
102.77651
107.09428
107.09758
109.3276
109.02628
110.81526
109.87525
110.26137
109.2833
112.08943
111.14872
109.32439
110.23416
108.34713
110.24542
109.34255
112.15438
113.26003
115.84146
112.13318
109.9014
109.0579
106.77847
107.14406
109.35975
110.85304
110.29385
109.3158
108.79783
111.17482
112.10532
113.0854
117.28181
116.01137
114.62313
117.67396
114.61086
115.83751
112.11392
113.07124
117.28628
116.01323
119.47369
120.9498
119.06876
120.93545
119.46972
121.5183
123.09236
124.83196
122.56235
118.7064
114.08383
113.11588
111.16259
109.17353
110.31398
112.44976
115.79955
112.4296
111.15182
114.49818
117.20551
118.63661
114.42462
115.484
120.21132
121.68676
116.34608
113.10582
105.45598
104.28452
102.60021
101.26844
99.802108
101.0375
102.67949
103.72578
103.70166
100.88351
100.00251
99.784875
98.582436
99.530136
98.335134
98.680999
99.959714
101.69656
102.85669
107.132
109.34937
110.83916
109.04644
106.75479
108.77023
109.30433
110.28301
109.88736
107.74781
107.00381
105.22102
104.3082
106.26378
108.00041
106.89335
105.78703
106.96321
109.28622
111.13861
112.09858
113.07924
112.10535
115.81663
117.28112
116.00602
114.59272
112.09357
113.2038
110.20218
108.29505
107.4141
109.24825
110.16704
112.04519
115.78138
119.03633
120.93198
119.46211
117.64635
119.43915
121.51204
123.08927
120.9223
117.22912
115.94708
114.55424
111.07525
112.00561
112.99949
110.15275
109.76806
107.67809
106.83271
104.14325
103.48431
102.20896
101.28322
99.938105
102.82758
104.06483
103.4873
102.1948
103.4843
105.74062
104.24917
101.62827
106.21057
107.93495
106.94392
105.1372
106.8882
108.65788
106.62481
102.73506
108.93135
110.71575
109.24293
107.00052
109.17569
109.1815
112.02075
115.95485
119.45519
121.53083
121.54292
119.49388
116.01964
112.0981
109.27872
110.25639
109.33019
110.81769
109.03432
106.7272
108.76276
109.87809
107.77213
107.02354
105.21871
106.98251
105.81455
104.31557
106.29074
108.02622
106.92572
108.36529
110.25424
112.13292
113.08175
117.30369
115.87453
114.64599
111.17029
109.34194
112.17996
113.29721
110.2779
109.35664
107.48067
105.81593
104.96214
102.89828
101.59791
102.21945
103.51409
104.09925
104.18581
103.51954
102.22605
99.955249
101.30424
102.86452
103.52661
106.30132
106.92407
108.03736
107.788
106.98731
105.22507
101.68714
104.32916
107.04616
109.07089
109.90869
112.17569
115.90181
119.11605
120.97394
123.12212
120.99822
119.52043
117.72232
114.66533
116.05829
117.35701
113.14236
112.14655
111.19944
108.78833
109.30502
110.29828
110.86952
109.38525
102.81743
106.74994
107.12224
107.11622
109.30199
112.13709
116.05262
119.508
120.99575
123.11152
120.93878
119.09406
117.69278
114.58018
115.82288
117.24839
113.01924
112.07365
111.09785
109.27878
112.13874
114.63639
115.88379
117.3533
113.14173
112.16726
111.18498
109.31808
110.25125
113.26588
110.20989
108.33187
107.437
105.75346
106.90506
108.66954
109.78967
110.17129
110.73932
109.25853
102.73594
107.00858
106.64201
108.95934
106.96511
107.70913
107.97058
106.87033
106.24538
101.625
105.15142
104.26193
102.17811
103.46876
105.78577
106.95922
108.77214
109.90162
110.29606
110.86631
109.38238
102.81336
106.73986
109.07258
107.02198
107.76328
108.01995
106.90731
106.28804
101.67067
105.20746
104.30079
102.1864
99.9362
103.48555
104.14058
104.06678
103.48268
99.921809
101.27062
102.832
98.665874
99.761894
100.96721
102.5847
103.60671
103.60455
102.58228
100.97652
99.773626
100.99524
102.63972
104.25
105.43906
113.09199
109.95273
111.92846
105.64926
104.25584
102.22367
101.97991
101.83355
101.87707
99.452103
99.253262
99.340668
101.76397
102.06508
102.08785
101.78112
101.678
101.71444
101.85055
101.9021
99.212369
99.266948
99.261654
99.292325
102.24677
101.97073
101.80087
101.83949
101.83878
98.88667
96.86906
97.132
97.367396
99.75979
99.356446
99.370912
102.1488
102.18829
99.381719
97.095499
97.155819
97.146685
97.086148
97.185499
97.199808
99.633307
99.622787
102.45862
102.82149
102.79869
102.42755
99.63414
97.217611
97.087517
96.996828
96.852219
97.111104
97.336542
97.332854
97.151282
96.951789
96.859375
97.03296
97.225775
97.225198
97.033912
96.866857
96.969686
97.161221
97.317939
97.147831
97.185274
97.27921
97.161435
97.101328
97.126248
97.176478
97.175618
97.121419
97.08638
97.132975
97.23305
97.124226
97.071397
99.309799
99.366168
99.855932
99.94407
99.827529
101.24881
99.748295
102.00381
102.00789
102.34163
102.71546
105.47213
105.58237
105.63851
105.65072
105.61687
105.52053
108.79157
112.47013
116.50496
116.63209
116.54272
116.44436
112.33078
112.4242
112.27782
116.40863
116.53849
116.63405
116.47384
112.34918
112.43139
112.23634
116.35614
116.40838
112.29604
112.32609
116.43524
116.67263
116.6312
116.54583
116.67597
112.57706
112.52396
108.67409
108.72988
105.13383
105.07152
105.14434
108.6921
108.73448
105.17544
105.26286
105.20843
108.79429
108.8508
112.68221
112.56929
112.52443
112.63165
116.71671
116.75695
116.90847
116.69448
116.60155
116.67252
116.65866
112.56278
112.45476
108.67435
105.2052
105.16151
108.73362
108.82432
108.81447
105.39224
105.27631
105.36981
105.50498