/*--------------------------------*- C++ -*----------------------------------*\
  =========                 |
  \\      /  F ield         | OpenFOAM: The Open Source CFD Toolbox
   \\    /   O peration     | Website:  https://openfoam.org
    \\  /    A nd           | Version:  7
     \\/     M anipulation  |
\*---------------------------------------------------------------------------*/
FoamFile
{
    version     2.0;
    format      ascii;
    class       surfaceScalarField;
    location    "400";
    object      phi;
}
// * * * * * * * * * * * * * * * * * * * * * * * * * * * * * * * * * * * * * //

dimensions      [1 0 -1 0 0 0 0];

internalField   nonuniform List<scalar> 
74922
(
-0.16876506
0.3244149
-16.373943
21.540928
-2.533596
-2.7890389
0.10482217
-16.282116
-1.2115782
17.022905
-17.608218
17.974544
-0.0031960764
-18.152069
0.22769892
0.29987094
-0.00033955467
0.62098817
0.024481847
-0.42242082
0.68731364
-0.63339425
16.347045
-1.9076415
-2.0910365
29.523071
-0.32731942
-0.83788433
21.547464
1.7765785
-0.62124728
17.640873
-0.49264497
-2.1457322
24.7733
-0.08330587
-1.6720117
27.796331
0.35614549
-1.6743399
27.854495
-1.8441701
-2.1531466
24.915266
0.33653221
-0.61020256
17.772991
1.8325516
-0.82974262
21.696052
-0.46547638
-2.0874101
29.812102
-0.74561462
-0.65226647
16.49354
0.4697298
-0.48618009
18.42282
0.40252461
-0.51026077
18.294197
0.26306269
-0.77012496
16.692779
-6.541758
-0.69843313
29.908373
-7.2597236
1.640289
27.550332
3.6773119
-0.13930517
28.552935
7.1013454
1.5483721
19.842889
4.590178
-1.9581323
25.43468
-2.6569797
-3.965772
26.015356
-3.397811
-1.3276825
22.479715
0.85303925
1.3414422
17.491057
7.6448792
2.1682796
24.759308
-0.74003737
-0.22296864
28.386393
0.042649036
-0.68466154
16.417836
0.00042632786
-0.62352152
17.932474
-0.042349742
-0.62371598
17.932502
0.73956402
-0.68541631
16.418487
-7.6300621
-0.2254095
28.378117
-0.85281501
2.1626376
24.751571
3.4072204
17.464043
1.336944
2.6602046
22.44011
-1.3322097
-4.6053981
26.055984
-3.9593599
-7.096834
25.496102
-1.9438969
-3.6747825
19.859328
1.5667032
7.2699022
28.578272
-0.11172429
6.5568325
27.576081
1.6594199
-0.27134056
29.925961
-0.68726338
-0.37628954
16.706061
-0.76449523
-0.49376386
18.292793
-0.5080184
0.78758762
18.424418
-0.48366157
0.41953043
16.462262
-0.65220385
-1.7985376
29.796041
-2.0810121
-0.41583174
21.628133
-0.83393467
1.788326
17.687435
-0.60185336
-0.50469691
24.847255
-2.1444367
-0.094062309
27.819786
-1.6635573
0.35358727
27.846126
-1.6708993
-1.8040413
24.900703
-2.1662675
0.25814164
17.679644
-0.61637488
1.9774314
21.628909
-0.8090645
-0.7362565
29.615773
-2.074865
-0.55142695
16.380485
-0.62592491
-0.42364672
18.147508
-0.39764221
0.80849859
7.5350391
0.399708
31.277716
-0.18857378
-0.16751224
0.83376702
7.5329286
1.403296
5.8000659
-3.8802325
-1.1922104
33.054538
-0.51144978
-3.4945846
1.5315063
35.998749
1.3807147
7.9749247
2.5994278
5.91896
-0.18843512
-1.6743284
25.935219
-0.051172977
-3.156206
29.025173
0.10603342
-3.1558515
29.067966
-2.6457969
-1.6888629
26.041628
-1.398936
5.9494678
0.526016
8.0248856
3.9653708
-3.5101291
1.5484759
36.143834
-1.2444688
-1.2742023
33.178559
-0.80323601
5.8261894
-0.37210556
7.5758471
0.66137839
-0.73790628
-0.38744613
30.997394
0.68927909
7.4407999
0.80098467
5.7527531
-5.9261256
-1.0619642
31.55537
-7.1495847
-3.5011847
38.342918
-1.3464349
-5.1812376
40.890984
1.3771075
4.4509608
-6.0318505
44.685809
7.0936753
8.462761
4.91505
8.9890461
-3.4711371
-0.56723765
25.330171
-4.6543251
8.2505892
0.55358809
7.8795592
2.8205491
-4.9123819
3.2237191
42.345665
-5.7927335
47.731146
0.020373221
-6.9505894
1.3099401
42.819549
2.0452687
-7.0334101
42.418089
3.9926898
-6.4068128
40.545411
3.9005603
-5.1106613
38.070062
-3.5994517
38.400212
3.6415854
-3.8635181
-4.2657527
38.118343
-2.6700855
38.873974
-4.8271428
-1.9686162
37.597467
-5.0851479
-3.06351
39.687672
5.0979904
-4.207741
-3.8839552
41.552535
-3.8276056
40.037248
-2.3001211
-5.9552277
41.793661
-0.28920108
-6.381323
43.064405
1.7036056
-6.3663334
43.263421
6.2877452
3.3789891
-5.9376271
42.279991
2.8770986
41.25383
3.3713664
3.6985029
-5.0755964
38.644449
6.8873768
38.195242
-0.80495895
-0.78583949
32.882987
-0.42560702
5.70413
-0.49241878
7.3715225
-0.75179764
-0.75189923
0.49388683
30.685518
-3.6577422
38.720204
-4.1356198
-4.1385312
3.6571242
38.422187
-5.1476093
40.568474
-3.9445924
-3.956833
5.1391577
42.298332
-1.9783957
-4.4090844
43.724584
0.29374943
-4.6472667
44.432021
2.4825864
-4.6538609
44.244137
-4.4095708
43.204841
4.5446163
-2.2429808
-2.6236772
44.209318
5.6768303
-2.003367
42.600666
5.6797595
-1.5764368
40.477619
4.414099
-0.9025456
38.126194
-0.34025406
37.382057
-4.9343572
0.044270774
33.53982
-6.0774128
0.053894343
37.833844
-5.9598162
0.075644222
40.788395
-4.7009238
0.10517383
43.04925
-2.6794093
0.13864723
44.6439
2.3396934
0.17389654
-0.2520237
45.552551
-0.27317969
45.164067
2.1795043
-2.3230672
45.381147
4.3867619
-2.2057862
44.863231
5.9209476
-1.9929662
43.730428
3.3840351
-1.7101673
6.2770083
42.288703
5.0710072
40.57189
3.6981666
-2.8778391
3.3716426
38.648426
0.78871178
38.721853
-0.80435936
-6.8833715
32.883574
-0.42616631
5.7043253
7.3716717
0.40007429
4.3915933
2.5800041
2.2012352
3.9031644
0.13705064
2.427105
-0.30315254
-0.059767903
-0.13563957
0.52837077
16.270637
-8.9716976e-05
17.656292
0.14032897
0.13513946
17.656605
0.14017755
0.52684218
16.269946
-0.13701258
0.83544771
30.987419
-2.6864568
-16.823548
0.12822043
19.125344
-1.5552634
1.5310537
6.3718052
14.351729
4.6190999
-0.55790327
16.014378
-1.1441554
0.11022345
23.825731
-1.9869881
-1.3181552
30.994368
-3.451818
-0.3699526
27.869509
-2.5637971
2.5540372
23.61321
-22.904232
-2.5093096
-0.24170441
16.020002
-11.401502
-1.7454156
-3.9935098
19.393018
-14.045657
-1.7534624
-1.0245277
30.121175
-2.7583295
-0.43707226
16.481873
-0.20608267
-0.23828337
17.877506
0.23383775
0.14184758
17.795484
0.21510243
0.34057136
16.429799
-0.04860374
-0.26647004
32.043124
-1.4830572
0.18652299
20.945493
0.24073126
0.63102994
17.271168
-0.030604017
0.015502672
26.823059
-1.3789237
0.057880253
29.011177
-1.2232926
0.076019695
28.985885
-1.2224862
-0.58629143
26.738841
-1.3775079
-0.17978895
17.18632
-0.03357501
0.25013311
20.820017
0.24050975
-0.43914851
31.807748
-1.4665549
-0.045772399
-0.081067563
-2.2015916
-0.21242383
2.4493106
-2.5672962
3.0832861
-0.29718655
0.43552456
4.5301078
4.0339989
4.8221371
-0.17014951
-0.83041255
-6.0192088
-1.956437
-2.4892188
32.336073
-2.4756133
1.9500375
-38.981662
37.992621
-1.915092
-2.6786476
3.093561
-3.390213
-2.5675657
1.1748
3.4175699
-3.6876773
-3.7281206
38.16363
-2.5402582
38.963524
-1.9516642
-4.7304276
37.513235
4.4071786
-0.97730115
-5.6435928
38.025303
-0.40812812
37.273299
-4.9325948
33.501869
-6.0678598
37.792899
-5.9353865
1.6783218
40.728651
-4.663846
2.1459542
42.94688
-2.6427433
2.4347903
44.482634
-0.23027403
2.589336
45.341034
-0.21004338
2.2858211
2.6398263
45.561222
2.2828717
45.789383
4.6126436
0.24591327
45.389117
6.3394604
0.27861372
44.44537
6.9317021
0.28246478
43.278896
1.3120097
5.7802276
0.018201374
42.83467
4.9070592
41.262382
3.2223473
-0.5511831
2.820726
42.350108
38.195247
4.8949889
3.0687375
-3.5502293
38.837614
-5.0558643
-2.7170561
1.0377269
6.2129821
0.361336
-6.3701412
0.49355383
3.1595312
16.8057
1.5331421
-0.83680004
0.12804385
-1.551278
19.135419
30.992043
-2.6846128
1.0298918
2.2136047
29.78858
-2.1755151
0.049160451
17.035678
0.029048313
-0.00051485128
18.060049
-0.41811035
-0.049940271
18.060517
-0.41846721
-1.0311413
17.035807
0.029132545
2.2113206
29.789006
-2.1768553
0.039245882
21.753916
-0.57136997
-0.98948004
17.362815
-0.38762115
-1.7505794
25.613015
-0.96808787
1.2537477
29.468349
-1.4935137
1.2094506
29.118942
-1.3232194
0.39608059
25.2676
-1.1332683
-0.1616094
17.342361
-1.0613798
-1.3170117
21.757926
-1.328646
0.47174555
29.844929
-1.6453137
-0.25019523
17.020758
-0.041958781
-0.28956326
18.103779
-0.277975
-0.23165973
18.096649
-0.41508627
-1.3229881
17.133216
0.20120374
1.6659201
30.200109
-1.2819267
0.037293468
22.414729
0.15825361
-0.99916146
18.148095
0.19286682
-0.075799004
26.498968
-0.54904939
0.037617579
29.996508
-1.0812065
0.14051641
29.938136
-1.0824599
1.0232
26.416097
-0.55393858
-0.037498345
18.092888
0.18755688
-1.708289
22.328765
0.16099571
30.052694
-1.3006339
0.1341736
0.11790395
30.79943
-0.9780015
0.06782158
17.513358
-0.39479925
-0.0022777287
18.693706
-0.62885023
-0.068810584
18.695439
-17.978686
-0.62989325
-17.033387
17.518274
-0.13049967
-0.39382106
-16.298645
-1.209319
0.10738328
0.17133518
0.44512404
-0.21761544
-0.042847438
-0.23798812
31.851531
-1.4618033
0.20859015
20.864333
0.25383361
0.63977205
17.23441
-0.033093324
0.021344698
26.790148
-1.3820729
0.07549859
29.007964
-1.2216345
0.10127302
29.009937
-1.2158084
-0.57382646
26.789388
-1.3701538
-0.1461801
17.243546
-0.023600793
0.28025429
20.908706
0.23240035
-0.33158185
31.992949
-1.4766587
-0.14539341
16.415735
-0.047630293
0.23856558
17.791299
0.21734355
0.43195954
0.23556298
17.879613
1.02333
-0.20274021
16.488056
3.9919114
30.13153
-2.75339
-14.049317
19.394707
0.24151769
-1.754182
-12.005957
11.417132
14.233562
9.7695379
6.8439104
22.946906
6.3552404
0.36950473
2.5507384
-2.5132313
23.6045
1.3139022
27.84352
-2.56566
-0.1144478
30.970647
-3.4525877
0.54912045
23.850197
-1.9844559
-14.317343
-1.1403034
16.037522
4.6185677
2.7621832
2.3499383
-0.090564884
1.9736169
-0.26117227
2.5554153
-4.5992802
15.341295
-2.1491782
-3.1646066
-3.5386055
3.9641971
0.58983677
-4.2171906
6.8407069
0.69342391
-6.4815468
-7.8789788
0.12318271
4.6589247
3.4720279
8.2517828
-0.55842876
25.337514
-4.9193049
-4.4527924
47.746444
-6.0119274
1.3455595
44.710657
1.3516975
-7.0061698
2.043891
42.439338
-6.3440863
2.2941643
43.08633
-4.6068607
2.4685617
44.264801
2.5980639
45.180166
-2.1790922
4.522419
4.3534059
44.231086
0.20519615
4.6667974
44.659546
2.4984815
4.6176299
44.490635
4.4133288
4.3578561
43.71098
5.5881341
3.842322
42.307658
3.0353325
40.325611
-4.8664729
39.5407
-3.9005169
4.8212281
41.120716
-2.2121847
5.5454145
42.315594
-0.17352972
5.8996695
42.961016
1.937513
5.9326634
43.068118
3.8254858
5.6580374
42.623042
-4.1954165
5.0507909
5.0735527
41.577031
5.9102489
43.230087
6.3733948
3.8221431
41.819451
5.1570876
3.9917568
40.570169
7.1528971
40.919486
-3.4791388
5.9282972
38.370018
-5.0757373
3.8981941
38.094757
4.2600884
40.062377
-3.8220069
3.6340232
3.5694486
38.136129
-3.0130178
4.8142404
39.703945
-1.5207943
5.6623599
40.493597
0.13259554
6.0565959
40.805712
1.7350852
6.0441886
40.7472
3.0864652
5.616331
40.342323
4.7009487
39.551388
-1.9836317
3.4800046
37.539474
-1.0095671
4.3959281
38.054385
-0.083342446
4.9208736
37.815897
0.87287157
4.9178891
37.844955
1.9391549
4.3950986
38.12761
2.6437842
3.4933806
37.596631
0.3708349
1.2607449
38.876372
-0.73679869
0.65400765
31.005616
0.36296904
1.0421969
38.421177
-0.80314318
31.576708
-0.67666286
5.7560465
7.4428991
2.5915472
0.44727224
4.4040797
0.1037865
-0.34027461
3.0635983
-2.2355527
-0.27718546
2.4137844
3.9677661
-0.16291667
4.8014181
-0.94792084
6.0490621
-2.1481737
16.327863
0.03889649
0.27723804
-2.7247842
21.50946
-2.7729474
-0.4744301
-0.2479727
17.023805
1.3147552
29.850929
-1.6407992
0.16063887
21.761658
-1.3287044
-16.007284
-0.40226496
17.344884
-1.0623783
-1.7492154
-3.1752383
20.109196
-6.203793
-3.4264328
-4.0462154
3.8919801
0.40542978
-2.3609581
0.92447103
6.9936
-8.9835457
0.43673688
2.5240164
4.2679609
5.2919603
0.37942901
-2.2229019
-2.5395885
18.717129
1.1365576
27.340425
-1.4562923
-8.2228504
-0.080710604
-1.2103332
25.270246
-1.2538858
29.121974
-1.326874
1.7477639
29.469428
-1.4951535
0.9925404
25.609587
-0.96651085
-0.040680555
17.359294
-0.38562365
21.752438
-0.56875103
-0.35672785
0.03211726
22.831908
-0.75176248
0.0044594012
30.723849
-1.2884487
0.011048056
17.535017
-0.47525396
-0.00060683291
18.752352
-0.65877494
-0.011826699
18.752735
-0.6591212
-0.0056311938
17.53518
-0.4749306
0.35515334
30.724112
-1.2880813
0.031054667
22.832134
-0.751775
-0.34783471
18.467586
-0.69324302
-0.34610164
26.818189
-1.1639136
0.18338921
30.324398
-1.3479244
0.47202641
30.293696
-1.4116547
0.2555152
26.788307
-1.2337491
-0.13286741
18.469253
-0.69435361
-0.59776572
22.841229
-0.6186689
-0.24866789
30.712769
-1.2020698
-0.1916697
17.512221
-0.50976988
-0.24298032
18.746738
-0.56496078
-0.17708793
18.748659
-0.69491107
-0.22761146
17.572978
-0.35886394
0.064548052
30.883585
-0.95428517
0.0020240217
23.043156
-0.60038167
-0.17446319
18.668119
-0.41484029
-0.12936759
27.038736
-0.62722189
0.019984874
30.489716
-0.64776725
0.1560746
30.482612
-0.64711692
0.18595287
27.010385
-0.62746719
-0.009965284
18.63219
-0.41823801
22.989304
-0.59187374
-0.042392176
0.014010183
23.23557
-0.21789485
0.020930529
31.089946
-0.35068391
0.0033562826
17.685055
-0.15321654
-0.0012817089
18.91015
-0.21231426
-0.0043204262
18.910835
-0.21284214
-0.01856474
17.686356
-0.15279994
-30.813004
31.094038
-0.35036698
0.05432145
-30.081255
-0.97684506
0.13536405
1.7288731
-1.2975017
0.063583553
0.17507328
22.355061
-0.97503762
18.114271
0.18528044
-0.054711553
26.471581
-0.55438205
0.061055945
29.990019
-1.0810031
0.16697682
29.95375
-1.0775283
1.0553485
26.449301
-0.54379718
-0.0048978246
18.129737
0.20057139
-1.6339637
22.392794
0.1445473
1.330283
30.176712
-1.2793227
0.2331277
17.124611
0.20172333
0.28738694
18.093164
-0.41325698
18.10459
0.19026938
-0.24209148
18.747867
-0.56473159
0.24670476
17.514219
-0.50811343
0.59565489
30.716288
-1.1994756
0.13189469
22.843448
-0.61856571
-0.25665824
18.470409
-0.69353226
-0.47321564
26.789137
-1.2330181
-0.18444351
30.293973
-1.4107784
0.34510948
30.324353
-1.347432
0.34655968
26.817962
-1.1646951
18.46733
-0.69449616
-0.0092698785
-0.095865855
18.802017
-0.22709049
-0.11691325
23.204255
-0.26278473
-0.040441873
31.086346
-0.43540681
-0.026557679
17.703183
-0.18076471
-0.00062812613
18.943623
-0.21619344
0.025933662
18.943676
-0.21648018
0.039623873
17.703289
-0.1805116
0.11592264
31.086517
-0.43514039
0.0086909064
23.204371
-0.26307272
-0.096504853
18.802164
-0.22690472
-0.099245038
27.218431
-0.39476803
0.019555634
30.67256
-0.460639
0.10863123
30.682063
-0.46832828
0.059700443
27.240037
-0.39836588
-0.065952669
18.817789
-0.22282018
-0.25186185
23.212741
-0.18677782
-0.17585368
31.064213
-0.42418878
-0.13355787
17.678815
-0.20769375
-0.14780473
18.928805
-0.16651569
-0.076902849
18.928738
-0.25005935
-0.08762276
17.712553
-0.12677674
-0.0022136131
31.133851
-0.33172111
0.0020782366
23.26652
-0.22650368
-0.033742035
18.857634
-0.15168235
-0.028441496
27.27409
-0.2347263
0.0066768077
30.701589
-0.23978521
0.038003797
30.693904
-0.23911071
0.03219958
27.253924
-0.23518459
18.835783
-0.15553501
-0.02592218
0.018212461
18.878713
-0.036604483
-0.044358862
23.286667
-0.033563185
-0.018072296
31.142249
-0.078498821
-0.0094640456
17.710849
-0.034456111
-0.0014589203
18.941439
-0.039462712
0.0079725119
18.94128
-0.040021894
0.018180423
17.710186
-0.034010804
0.04957495
31.141134
-0.078227408
0.032833137
23.286893
-23.241274
-0.029589163
-18.838789
18.87787
0.03147714
-0.038201758
-18.643736
-0.0061455751
-0.02822853
-0.15930222
-0.14625362
-0.42341654
-0.031056633
-0.10211535
27.01793
-0.63292147
0.048055289
30.483054
-0.64907814
0.18603707
30.492911
-0.64400553
0.21810551
27.034803
-0.61986724
0.022817775
18.658733
-0.40797166
-0.040390657
23.029973
-0.61239006
0.23608272
30.872669
-0.95160494
0.17904087
17.569396
-0.35761564
18.747376
-0.69430657
0.14703844
-0.078126106
18.929379
-0.25006628
0.1324119
18.93035
-0.16658074
0.1742646
17.680397
-0.20683452
0.25018631
31.066569
-0.42293718
0.065295228
23.214124
-0.1869412
-0.060305982
18.818571
-0.22247648
-0.10920717
27.24064
-0.39813524
-0.020140763
30.6823
-0.46825153
0.098627476
30.672548
-0.46064314
27.218292
-0.3948697
0.014136316
-0.032685106
27.316047
-0.080812931
-0.017339166
18.878774
-0.047266494
-0.060125936
23.290615
-0.045341065
-0.038193429
31.158505
-0.094201686
-0.020179916
17.72628
-0.040958404
-0.00035636949
18.962452
-0.038294978
0.019776377
18.962388
-0.038481224
0.037703176
17.726314
-0.040801356
0.059572074
31.158587
-0.094054092
0.017027736
23.290656
-0.045509987
-0.014474078
18.878836
-0.047160713
-0.033013874
27.316109
-0.080746827
-0.025114469
30.757849
-0.093818085
-0.013448029
30.763623
-0.09314639
-0.024122937
27.328644
-0.078776821
-0.047302903
18.887046
-0.047779296
-0.11493893
23.292586
-0.014673361
-0.093629504
31.137848
-0.095149999
-0.066665184
17.706883
-0.05511472
-0.069892919
18.947348
-0.015037805
-0.030157482
18.947671
-0.058373682
-0.022174712
17.724479
-0.019506073
0.011259828
31.168204
-0.067469875
0.012399004
23.307374
-0.042276975
0.0075962124
18.895023
-0.032524209
0.002683178
27.330856
-0.051361273
-0.0028061577
30.761033
-0.054296234
-0.0096722765
30.753874
-0.055114657
27.31396
-0.053966483
-0.029738111
0.022342969
27.345219
-0.026857253
-0.029482895
18.89691
-0.020351255
-0.046426279
23.304376
-0.0022150201
-0.024492639
31.152684
-0.032906959
-0.011052153
17.713117
-0.0163728
-0.0015704665
18.942483
-0.011115328
0.0090679481
18.941963
-0.011906349
0.022649097
17.711721
-0.015749973
0.046196246
31.149551
-0.032444115
0.030860473
23.302202
-0.0012909222
0.033405709
18.894637
-0.020564273
-27.31254
27.342729
0.028320117
-0.026762342
-27.255941
0.029099647
-0.055046161
7.3917928e-05
-0.239706
0.036185617
30.693189
-0.24132848
0.067898228
30.700984
-0.23730359
0.062046943
27.273931
-0.22948848
0.014428612
18.855833
-0.14699478
0.018373973
23.262099
-0.23523906
0.093311448
31.13174
-0.33045889
17.712556
-0.12603563
0.030270033
-0.024496783
17.726399
-0.019288595
0.068814737
18.949452
-0.058355357
0.065633426
18.949107
-0.015304449
0.092344997
17.708261
-0.054644741
0.11372403
31.139599
-0.09459866
0.046818879
23.29348
-0.014887537
0.023730729
18.887545
-0.047577543
0.013132907
27.329032
-0.078632006
0.024813322
30.763785
-0.093083056
30.757871
-0.093818971
0.012510565
-0.027547009
30.799493
-0.028709439
-0.0059924871
27.35876
-0.026368028
-0.018967082
18.908378
-0.01860436
-0.041708194
23.320293
-0.0087674845
-0.026683807
31.176974
-0.034259427
-0.012739348
17.728937
-0.017259137
-0.00015973786
18.960438
-0.011034414
0.012517781
18.960381
-0.011138741
0.026413419
17.728934
-0.017174027
0.041426002
31.176993
-0.034187913
0.018810872
23.320312
-0.0088675635
0.0058260915
18.908406
-0.01856197
-0.012662536
27.358779
-0.026345367
-0.027702328
30.799475
-0.028716487
-0.035262265
30.797422
-0.027799902
-0.037550362
27.354375
-0.025004306
-0.036079403
18.903481
-0.019343336
-0.062678145
23.310817
0.0066114709
-0.045074305
31.153096
-0.033539778
-0.028909964
17.712084
-0.022151242
-0.02642604
18.945912
-0.0016429384
-0.0075229292
18.947792
-0.01958829
0.0019484153
17.723514
-0.0091062572
0.022323075
31.17457
-0.027329797
0.016044019
23.322974
-0.010456491
0.014314076
18.91259
-0.016666479
0.0058667059
27.362902
-0.024295548
-0.0084578989
30.79949
-0.027105954
30.79153
-0.027959836
-0.022158019
0.010488582
30.834177
-0.034767575
-0.02694468
27.379718
-0.032679491
-0.026305909
18.918404
-0.024251571
-0.04090109
23.325144
-0.0080454828
-0.020065963
31.169125
-0.038383891
-0.0093265453
17.72141
-0.020267594
-0.0015584574
18.949232
-0.015666504
0.0071998288
18.948638
-0.016583956
0.01721636
17.720023
-0.019552867
0.037600914
31.16586
-0.037815151
0.024543086
23.322442
-0.0089929977
0.025082319
18.916063
-0.023782485
0.020408763
27.37743
-0.032172313
-30.789976
30.833446
0.0088995434
-0.03430394
-30.75151
0.015563899
-0.027596682
0.025064454
-0.055377945
0.017509487
30.760813
-0.053825323
0.0069031964
27.333232
-0.049960007
-0.0041705582
18.896565
-0.03049932
-0.0035102514
23.307969
-0.04696981
31.170907
-0.067030203
-0.0023054986
0.021035415
31.178922
-0.02738185
0.0067560519
17.72599
-0.0092670587
0.025051065
18.949871
-0.019273378
0.027986442
18.947564
-0.0019748648
0.044046021
17.713226
-0.021798769
0.061792034
31.154397
-0.033226279
0.035730694
23.311392
0.0064152572
0.037282751
18.903791
-0.01921888
0.035074505
27.354609
-0.024918783
30.797518
-0.0277608
0.018517587
-0.027503656
30.836488
-0.032173654
0.0042227708
30.843858
-0.032626692
-0.0084731101
27.399256
-0.030209248
-0.016185154
18.935618
-0.021672293
-0.031072632
23.347053
-0.013872994
-0.01639829
31.199035
-0.038029033
-0.0079472779
17.739115
-0.019921677
-8.2045328e-05
18.967828
-0.016420329
0.0078372645
18.967766
-0.016469809
0.016254937
17.739102
-0.019879921
0.030926105
31.199024
-0.038000261
0.016107628
23.34705
-0.013924883
0.0083929841
18.935624
-0.021652788
-0.0042999059
27.399261
-0.030203055
-0.018599887
30.843846
-0.032633949
-0.0276178
30.836437
-0.03219664
-0.028601172
27.38295
-0.029619224
-0.025636765
18.920835
-0.022077929
-0.039226926
23.327888
-0.0053237124
-0.021444222
31.170191
-0.036087215
-0.012355421
17.722416
-0.020762591
-0.0082004435
18.953513
-0.012993025
0.00092118755
18.956727
-0.019288353
0.0071893928
17.732813
-0.016875507
0.02306927
31.192991
-0.035568456
0.014201735
23.345375
-0.015291636
0.01058652
18.935724
-0.021177454
0.0025252719
27.39989
-0.030545963
30.84355
-0.034066174
-0.0099057546
0.00046706463
30.88274
-0.032780699
-0.017866952
30.872565
-0.033270117
-0.020374269
27.410704
-0.031180499
-0.020018458
18.938404
-0.022809036
-0.030942965
23.344468
-0.010789929
-0.01399643
31.186879
-0.036525383
-0.0067845056
17.731756
-0.019490806
-0.001348181
18.958338
-0.016385026
0.0048595802
18.957823
-0.017241026
0.011064747
17.730683
-0.018809447
0.026726073
31.184307
-0.035969663
0.017104737
23.342146
-0.012453494
0.016311282
18.936513
-0.022125422
0.012934355
27.40877
-0.03067004
0.004705553
30.871811
-0.032998894
-30.84473
30.883611
-0.0043262974
-0.032780185
-30.800447
-0.0039822046
-0.033876215
0.00060174769
-0.02678921
-0.0099490252
27.365944
-0.023989812
-0.013914294
18.915266
-0.016190941
23.325671
-0.011824476
-0.025437736
0.015525533
23.348397
-0.014614676
-0.0090319293
31.197112
-0.035840322
-0.0021198898
17.735015
-0.017228954
0.0067429944
18.958557
-0.018762793
0.011571602
18.95482
-0.013306967
0.020659509
17.723273
-0.020454324
0.038605869
31.171105
-0.035844781
0.02539853
23.328245
-0.0054693188
0.028424164
18.921015
-0.021999398
27.383082
-0.029568563
0.016613784
-0.01756791
27.410869
-0.029451413
0.0098674799
30.872541
-0.032085612
0.00025854401
30.882763
-0.032261642
-0.0071181397
27.433511
-0.029698919
-0.012049802
18.958883
-0.020942076
-0.022034459
23.370085
-0.015489435
-0.0096964702
31.220862
-0.036123869
-0.0049415087
17.751324
-0.018951136
-4.3301321e-05
18.978309
-0.01725609
0.0048819072
18.978248
-0.017284407
0.0096345691
17.751289
-0.018929982
0.021974634
31.220828
-0.036106375
0.012019487
23.370072
-0.015512085
0.0070844364
18.958879
-0.020937283
-0.00029135589
27.433514
-0.029702011
-0.0099080477
30.882765
-0.032273703
-0.016677821
30.872521
-0.032102233
-0.017674983
27.410804
-0.029485539
-0.016703062
18.938586
-0.021134975
-0.025125939
23.345067
-0.01109886
-0.010708272
31.188402
-0.034534673
-0.0057368852
17.734137
-0.018702677
-0.0021258402
18.964061
-0.016085942
0.0026523586
18.96807
-0.01804843
0.0061217404
17.745113
-0.017793999
0.01781937
31.214276
-0.034972304
0.01007197
23.367406
-0.016672423
0.0058239699
18.957825
-0.020423061
27.432947
-0.02959759
-0.0019734269
-0.0022501166
27.456865
-0.023173598
-0.0079028198
30.910624
-0.025573053
-0.012542196
30.899636
-0.025915821
-0.01352507
27.432638
-0.024311173
-0.013452665
18.952838
-0.017702732
-0.020724235
23.35821
-0.0095252659
-0.008646201
31.200339
-0.028183009
-0.004381089
17.739942
-0.0151811
-0.0010381571
18.965607
-0.013236379
0.0028709043
18.965213
-0.013930273
0.0062048171
17.73923
-0.014626994
0.016920184
31.198606
-0.027703362
0.010621593
23.356552
-0.011159846
0.0093849871
18.951569
-0.01705346
0.007333037
27.431309
-0.023882316
0.002297124
30.899087
-0.025764703
-0.0031761426
30.911189
-0.025660057
-27.434995
27.458226
-0.0062843987
-0.023539137
-27.402473
-0.0096727086
-0.029929675
-0.012050818
-0.0307013
18.938279
-0.021472022
-0.012743576
18.959815
-0.02099623
-0.021480161
23.369905
-0.015156057
-0.0083753973
31.217389
-0.035317021
-0.0038887111
17.746729
-0.018194223
0.00083175146
18.969426
-0.017487472
0.0051227837
18.964976
-0.016348984
0.010140722
17.734718
-0.018454857
0.024712026
31.188991
-0.03435006
0.016554662
23.345272
-0.011192745
18.938687
-0.021081034
0.0095698733
-0.0099555765
18.95248
-0.016602117
0.0087135368
27.43191
-0.023527645
0.0044696456
30.898949
-0.025641463
-0.0010941226
30.910484
-0.025716703
-0.0049170159
27.457541
-0.023640362
-0.008067123
18.975316
-0.016574423
-0.014455662
23.386238
-0.012841217
-0.0054226992
31.237014
-0.027915975
-0.0029416349
17.76083
-0.014754866
-2.0702414e-05
18.986685
-0.013944804
0.0029212236
18.986612
-0.013954236
0.0053986146
17.760794
-0.014752281
0.014436297
31.236975
-0.027920248
0.00805734
23.386223
-0.01285115
0.004908812
18.975313
-0.016580512
0.0010856994
27.457544
-0.023651083
-0.0044834307
30.91049
-0.025727751
-0.0087423347
30.898945
-0.025658543
-0.0096261796
27.43188
-0.023554373
-0.010043559
18.952433
-0.01663827
-0.015471687
23.358304
-0.010843244
-0.0054167994
31.202624
-0.02699641
-0.0029145395
17.743288
-0.014437917
-0.00051637446
18.972534
-0.013548259
0.0020640732
18.976958
-0.014152246
0.0036115857
17.754992
-0.014229696
0.011455587
31.230891
-0.02723733
0.0060072168
23.383667
-0.01389573
18.974207
-0.01595464
9.5382871e-05
-0.0030845632
18.984505
-0.011463867
-0.0023554077
27.471722
-0.016653192
-0.0055195688
30.927762
-0.01834254
-0.0077478996
30.916159
-0.018578247
-0.0078651178
27.446019
-0.017439552
-0.0081361743
18.961716
-0.012667358
-0.012567165
23.36642
-0.0076057636
-0.0046066322
31.208677
-0.019812169
-0.0025183449
17.745118
-0.010840225
-0.00071510718
18.970162
-0.009806395
0.0014641873
18.969879
-0.010299061
0.0028562229
17.744687
-0.010435368
0.0097256842
31.207655
-0.019458967
0.0059525866
23.365374
-0.0088742071
0.0046124654
18.96097
-0.012150359
0.0035985392
27.445235
-0.017104185
0.0010231972
30.915825
-0.018470369
-0.0017698851
30.928078
-0.018419498
-0.0032999785
27.472504
-0.016952053
-18.975516
18.985255
-0.0052009839
-0.011942132
-0.008703985
-0.016547109
-0.014929878
23.38541
-0.012341289
-0.0056214247
31.232917
-0.027556801
-0.0030982555
17.756022
-0.014584172
-0.00049191064
18.97784
-0.013672827
0.0024759325
18.973095
-0.013739351
0.0050379446
17.743646
-0.014248774
0.015213115
31.202971
-0.026855352
23.35841
-0.010899161
0.0055336751
-0.0087981997
23.366803
-0.0089290928
0.0045082612
18.961471
-0.012033776
0.0039836999
27.445398
-0.01713391
0.0017577669
30.915553
-0.018662253
-0.0010070116
30.927632
-0.018699442
-0.002737314
27.472266
-0.017199913
-0.0048808871
18.985407
-0.012053149
-0.008731461
23.395954
-0.0096958735
-0.0025872727
31.246995
-0.019680867
-0.0015919442
17.766815
-0.010569047
-3.9577495e-06
18.991936
-0.01029249
0.0015872451
18.99186
-0.01029166
0.0025890271
17.766772
-0.010568858
0.0087429027
31.246953
-0.01968783
0.0048893408
23.395939
-0.0096981754
0.0027439981
18.985404
-0.012065835
0.0010137248
27.472269
-0.017212668
-0.0017539723
30.92764
-0.018713305
-0.0039889097
30.915564
-0.018683253
-0.0045307518
27.445396
-0.017159195
-0.0055770741
18.961453
-0.012059246
-0.0089483867
23.366762
-0.0089090841
-0.0024213932
31.211779
-0.019240759
-0.0014773987
17.74912
-0.010381384
-0.00018402015
18.977909
-0.010150314
0.0011205975
18.982553
-0.010384261
0.0014221086
17.761335
-0.010269482
0.006449544
31.241478
-0.019218186
23.393737
-0.010554834
0.0013823067
-0.0033473472
23.399168
-0.008081524
-0.00095419432
18.990165
-0.0082911159
-0.0021214435
27.479854
-0.011987146
-0.0034149702
30.937086
-0.013164493
-0.0041194987
30.925098
-0.013318006
-0.0038247686
27.453231
-0.012490159
-0.004471831
18.966493
-0.0090459032
-0.0070240986
23.370655
-0.0062838955
-0.0018797873
31.213128
-0.013911033
-0.0012516443
17.747891
-0.007769945
-0.0004394612
18.972583
-0.0074551935
0.00059764337
18.972382
-0.0077666371
0.00076592409
17.747655
-0.0075094816
0.0051909313
31.212568
-0.013669686
0.0030335481
23.370053
-0.0071173233
0.0016669515
18.966106
-0.0086943866
0.0013481113
27.452819
-0.012256037
0.00040176334
30.924913
-0.01323521
-0.00064210708
30.937239
-0.013215162
-0.0011856882
27.480249
-0.012192767
-0.0027849415
18.990542
-0.0086153881
-23.394803
23.399757
-0.0050735494
-0.0072578158
-0.0091021004
-0.0093207119
-0.0029118749
31.242638
-0.019457938
-0.0018605489
17.761914
-0.010529343
-0.00050692006
18.983064
-0.010032546
0.0011912592
18.978215
-0.010275214
0.0021882795
17.749314
-0.010249709
31.211964
-0.019142394
0.0047834253
-0.00047161266
31.216911
-0.013580555
0.0028252556
23.371394
-0.0072107989
0.0015577143
18.966523
-0.008694348
0.0014117031
27.452944
-0.012372695
0.00059506374
30.924746
-0.013455337
-0.00041830831
30.937028
-0.013470813
-0.00099982623
27.480277
-0.012413756
-0.0026705846
18.990885
-0.0087323401
-0.0048952742
23.401063
-0.0074721728
-0.00073951802
31.252353
-0.013840114
-0.00071504767
17.770037
-0.0076112783
3.0727541e-06
18.994743
-0.0077436321
0.00072734969
18.994656
-0.0077367722
0.00075721646
17.769993
-0.0076192942
0.0049219835
31.252307
-0.01385414
0.0026830181
23.401049
-0.0074677943
0.0010167439
18.990882
-0.0087444772
0.00043677676
27.480289
-0.012434991
-0.0005788098
30.937046
-0.013494008
-0.0014017565
30.924766
-0.013476461
-0.001558963
27.452958
-0.012395542
-0.0028454883
18.966531
-0.0087177566
-0.0048599171
23.371389
-0.0072096438
-0.0006015986
31.216831
-0.013653242
-0.00064845317
17.752309
-0.0075268933
-0.00011375575
18.980819
-0.0076873637
0.00042834346
18.985576
-0.0078127501
-1.4353335e-05
17.764811
-0.0074324171
31.247283
-0.013537265
0.0017407859
0.00078801961
31.249967
-0.010170321
0.00056364648
23.401651
-0.0065312683
-0.0013165718
18.992826
-0.0063811867
-0.0016615425
27.483679
-0.0090949354
-0.0018442465
30.941447
-0.0098818085
-0.0017071081
30.929258
-0.0099687692
-0.0012593546
27.456568
-0.0093753897
-0.0022251346
18.968688
-0.0067972617
-0.0037009325
23.37248
-0.0055579194