/*--------------------------------*- C++ -*----------------------------------*\
  =========                 |
  \\      /  F ield         | OpenFOAM: The Open Source CFD Toolbox
   \\    /   O peration     | Website:  https://openfoam.org
    \\  /    A nd           | Version:  7
     \\/     M anipulation  |
\*---------------------------------------------------------------------------*/
FoamFile
{
    version     2.0;
    format      ascii;
    class       volScalarField;
    location    "300";
    object      alphat;
}
// * * * * * * * * * * * * * * * * * * * * * * * * * * * * * * * * * * * * * //

dimensions      [1 -1 -1 0 0 0 0];

internalField   nonuniform List<scalar> 
25278
(
7.9178265
7.7990606
7.8384682
7.8384485
7.7044321
7.7990515
7.89205
7.9178059
7.8920945
7.7892359
7.8540705
7.8888943
7.847983
7.8067606
7.060878
7.8383653
7.7989971
7.2073128
6.7494051
7.2834816
7.5824473
7.6770688
7.7571526
7.8039342
7.6573944
7.8039045
7.7571499
7.5929056
7.5204217
7.559428
7.4479376
7.4064707
7.0616227
7.2949889
7.3272522
7.278964
7.311731
7.2241062
7.1918636
6.9432
7.0918023
7.1260786
6.9940844
7.031548
7.2636706
7.5006192
7.7295142
7.6378688
7.4011652
7.3401035
7.2599282
7.1995907
6.5785089
6.7977879
7.1001971
7.1390856
7.0495544
7.0084932
6.6388748
6.7932679
6.8479656
6.7075436
6.5890129
6.9844035
6.9358457
6.8930699
6.9428501
6.5201956
6.4363327
6.5121838
5.9642728
6.1840522
6.4253244
6.6558574
6.8730874
7.0268235
7.3277913
7.5596942
7.6772522
7.6110559
7.5555481
7.0656341
7.210483
6.767524
7.4889753
7.4243518
6.5275112
5.6103313
6.1859718
6.7443933
6.7847764
6.2049024
6.1727479
5.1113898
5.2088953
6.2177196
6.3487893
6.8770746
6.8970272
6.3635963
6.3364579
5.3288306
5.4546291
6.3743584
5.782526
5.7747486
5.6368655
4.0625403
3.9837336
3.0647971
5.0937355
5.0714903
3.0366349
3.0246513
4.1620565
4.2729256
3.0143006
5.1792235
5.2166498
5.2118644
6.7649732
7.4887315
7.7043104
6.1560542
5.087924
3.9681638
3.0561805
5.0883787
6.524371
7.4240142
7.5552379
7.6109199
7.2084139
7.0617845
6.1752953
5.6007731
5.6269836
5.06508
3.0261975
4.0440275
4.1417783
3.0118709
2.9987618
5.1719073
5.7718446
5.764759
6.3395615
6.2064702
5.1844752
6.1875798
7.0540015
6.7368181
6.7778765
6.871604
7.2027714
6.8921285
6.3657242
5.4320249
4.2500387
2.51671
1.1241932
1.1314969
2.5388597
4.2150679
5.7426023
5.7378458
5.1511923
5.1063844
2.8836498
2.9096683
4.1088989
2.4827943
1.1661425
1.06506
0.38049354
0.42250115
1.2309544
1.2244994
0.43568479
0.39359817
1.0630897
1.1606444
2.4638733
4.0630975
5.3038503
6.3215966
6.3488271
5.7078663
4.1646182
2.7921795
2.8284082
5.0829633
6.7290968
5.7030598
5.0328949
5.2234886
2.7726903
0.97031465
0.35752393
0.34453999
0.9687426
2.8763545
5.295159
5.9007864
6.5060692
6.981385
7.2955968
7.5208196
7.4086852
7.4487319
7.2808926
7.0664839
7.0950425
7.1285759
7.3127134
7.2263584
7.195301
6.9493982
6.9988303
7.0348907
7.171246
7.3893496
7.6039886
7.7295631
7.6287972
7.4117656
7.382344
7.5231333
7.5008101
7.345757
7.3596357
7.1898256
7.0650918
7.2777272
7.2650291
7.1854267
7.4021603
7.6379841
7.5830916
7.2877879
7.3422463
7.1057964
6.8114937
6.8046527
6.8570335
7.1426189
7.0553564
7.0165429
6.6559869
6.7214566
6.6071574
6.9919392
7.2628516
7.2054161
6.6001161
6.9458509
6.5346528
6.4602194
6.9028644
6.9499138
6.5385498
6.6003897
6.6637017
6.7699684
6.8981922
6.9350097
7.200411
7.1200149
7.1042742
7.0450814
7.3317093
7.3551036
7.4260321
7.2307072
7.3067887
7.31641
7.395583
7.232387
7.2197384
7.0914476
7.1119319
6.9886219
7.2413344
7.1654435
7.1555898
6.8493825
6.9643363
6.8076043
6.8846516
6.9634316
7.0252577
7.1381002
7.4116524
7.6286549
7.603708
7.3888143
7.345068
7.3594673
7.2766621
7.0630866
7.1889607
7.1693819
6.9642552
7.0968194
6.9928607
6.9299022
6.9070842
6.8834914
6.7168447
6.9178974
6.6178547
6.5730971
6.2613956
6.3512559
5.9056869
6.3152073
6.6209422
6.9214765
6.8767615
6.5157589
6.5771919
6.2758878
6.6656633
6.7250178
6.3630182
5.9174652
5.8191435
6.2477234
5.6171997
5.8049395
5.23608
5.3734335
5.7549451
5.9759192
6.2036931
6.3921004
6.5807642
6.7392883
6.7635328
6.6575374
6.818553
6.7942019
6.6220479
6.4392861
6.4723809
6.6098287
6.6832368
6.708602
6.6354299
6.7899269
6.8040974
6.942558
6.8596062
6.8462014
6.6836266
6.7038376
6.5257595
6.6544695
6.4736113
6.4549134
6.4218697
6.2660353
6.2199893
5.9953427
6.0379593
6.2390939
6.3804161
6.6858318
6.965832
6.9935853
6.7103574
6.6404405
6.7939896
6.9326002
6.9107127
6.8878827
6.7451903
6.7677616
6.6653997
6.8244767
6.8011528
6.6313878
6.4511779
6.5870499
6.6152466
6.4291864
6.3993864
6.2350422
6.2787304
6.4825229
6.510253
6.6898967
6.8510621
6.8629402
6.9444834
6.8071175
6.7092301
6.5326815
6.6582689
6.4785072
6.4604867
6.3096033
6.3352113
6.3590803
6.5067346
6.7592683
6.7709202
7.0425411
6.986877
6.9715123
6.8372942
6.8286123
6.7278747
6.7422
6.8922893
6.9109065
6.9173067
6.9943246
6.8626783
6.8545736
6.7575879
6.7700001
6.6017387
6.7194809
6.7075984
6.6925953
6.6799196
6.5527861
6.5700166
6.3782287
6.5170927
6.5384054
6.5482397
6.4142383
6.3968235
6.5859791
6.4675039
6.660382
6.8356497
6.8170935
6.6433695
6.626653
6.606528
6.7852868
6.770968
6.7428472
6.7156611
6.5130942
6.4446558
5.9396702
5.9478379
6.0378871
5.6861197
6.2977537
6.2161196
5.5664767
4.7822565
5.3419713
4.4243698
4.6103907
4.7385697
5.4425845
4.894887
3.9675675
3.8173871
2.9323501
4.1739203
5.2085402
6.0088526
5.3673382
5.8779016
5.9749946
6.1009866
5.3301559
5.0702821
4.9364006
3.6862918
3.0276613
2.0665421
2.0616495
2.9975412
4.2687375
3.7406732
4.3429842
4.5664374
4.831831
5.0954451
5.354141
5.586526
5.8104758
6.0108408
6.2106303
6.2457413
6.0157732
5.9802683
5.7471473
5.8023095
6.0517232
6.087664
6.2801137
6.4257643
6.2746489
6.2972236
6.1064105
6.325757
6.2982508
6.5005608
6.3661339
6.5749064
6.7641998
6.9307978
7.1984221
7.1820897
7.100672
7.1174618
6.8067749
6.759347
6.8912098
6.7058906
6.4959361
6.2690523
5.6297651
6.0082484
5.9143236
5.505677
5.121564
5.2457257
6.0607959
5.9332782
5.8305628
4.8443657
4.9795988
3.5754675
4.119608
4.8038175
5.4013844
5.2985472
4.3597097
4.6913006
3.7180476
4.5745279
4.7007542
3.8604536
2.8087816
2.7663099
4.0339148
3.5338582
1.8917098
1.8629281
2.5060846
3.3644972
4.191159
4.8518442
5.4215016
5.8535077
6.2195439
6.5867285
7.0017429
7.3303258
7.3547158
7.425769
7.5229319
7.3819943
7.39555
7.3160263
7.3058748
7.0903286
7.2194476
7.2322455
7.1113566
6.9875423
7.2407892
7.2292461
7.1542397
7.1645753
6.8744182
6.8444027
6.9618691
6.8033566
6.8816644
6.9616816
7.02436
7.0424733
6.9859166
6.9702739
6.8903637
6.7393647
6.8353133
6.8262744
6.7233105
6.5476595
6.6771636
6.7580828
6.7700362
6.7062696
6.8536288
6.8620438
6.993702
6.9162512
6.9089198
6.7554386
6.7686091
6.5996106
6.7184047
6.5467385
6.5357957
6.5139835
6.6898534
6.5659111
6.3729074
6.3510422
6.502376
6.3261734
6.4732891
6.499005
6.3642486
6.3412614
6.1598186
6.1345888
5.8980672
6.1139095
6.0762972
6.0558581
6.0106289
5.7886826
5.7312325
5.4662833
5.520197
5.799045
5.5295913
5.4760001
5.157929
5.2282851
5.2783328
5.5661886
5.8297102
6.0744423
5.8710625
6.1313081
6.0933484
6.3317643
6.5446408
6.7341715
6.638492
6.6069695
6.3849032
6.5089597
6.2972153
6.1430408
6.1863745
6.4293871
6.4633773
6.6729474
6.6902778
6.7796584
6.5987513
6.4908627
6.3817312
6.6106176
6.5898474
6.5525667
6.5167063
6.4221671
6.4599716
6.1951023
6.3111852
6.2650121
6.1387845
5.8236353
5.9867814
6.0325887
5.8769012
5.5046092
5.7118698
5.9097381
5.848617
6.047094
5.7830067
5.8268401
5.5995533
5.5417264
5.1847617
5.4810991
5.5370666
5.2596464
5.3145383
5.6494689
5.9534245
6.2241485
6.2580185
6.3938842
6.1642274
5.9927854
5.8105881
6.1164188
6.0766666
6.3489984
6.2379971
6.5026515
6.5251612
6.2742037
5.9731225
5.92676
5.5625659
5.7624528
5.4060483
5.3461782
5.2879242
5.6499399
5.4268858
5.2165365
5.6681953
6.0276631
6.3416818
6.6498501
7.0396469
7.0599636
7.0227968
6.6468045
6.7050486
6.7498773
7.0982834
7.1110131
7.077163
7.0639387
6.6957185
6.7340432
6.7843327
6.5434369
6.6043781
6.6788201
6.7522295
6.8334747
6.8140321
6.7287387
6.7172521
6.5164517
6.6205484
6.6391847
6.5376755
6.5585592
6.6569458
6.6725123
6.8422896
6.7609036
6.5761521
6.482068
6.6899477
6.6168304
6.3922785
6.3672293
6.4603124
6.4364178
6.6539608
6.6397556
6.5593722
6.5749361
6.3384476
6.3085288
6.4107673
6.1526682
6.2875152
6.4192312
6.4419617
6.314522
6.0614407
6.2199177
6.193146
6.0278142
5.8539745
5.8946304
6.1849116
6.0559058
6.0153424
5.6710006
5.6172644
5.4212832
5.8333185
6.1737018
6.4561742
6.4302196
6.384309
6.3128878
6.2675209
5.9246964
5.9897074
6.0842987
6.1320888
6.0417013
6.3630597
6.3909414
6.086851
6.0228182
6.3490829
6.3191302
6.2666526
6.2412041
6.1925368
5.8154646
5.8838588
5.9186086
5.9734915
5.9403793
6.294883
6.3253643
5.990047
5.5620995
5.6110896
5.7076087
5.6492466
5.7804227
5.7239402
5.5879163
5.5263577
5.0067178
5.0952695
5.2921014
5.3571093
5.1649186
5.2346906
5.0845768
5.0100578
5.5481263
5.4835042
5.4311062
5.3667535
4.7665658
4.8563758
4.9371269
4.25381
4.4927231
4.7784454
5.0717186
5.0020492
4.4976889
4.872703
4.9444052
4.5883608
4.6583096
5.1381286
5.2029455
5.4602975
5.6947907
5.9080894
5.6270855
5.8639411
5.6056059
5.8736271
6.0804394
6.3014567
6.1164918
5.8752835
5.8417047
6.0595669
5.8433695
5.5745853
5.6129764
5.3221353
5.3627513
5.6412119
5.9079449
6.1170963
6.3295187
6.3448335
6.1307538
5.9327358
6.1657962
6.1428089
5.9056346
5.647966
5.6794916
5.9304716
6.1277467
5.925563
5.9529714
6.1830874
6.393202
6.5828655
6.4624598
6.4810831
6.3616574
6.3386568
6.0910724
6.2442945
6.2667946
6.4111288
6.2038648
6.377622
6.170026
6.1579772
5.9594882
6.1605949
6.366265
6.3793048
6.171281
5.9802526
6.2070397
6.1875523
5.9575546
5.7088233
5.7350332
5.9772204
5.7316384
5.9759329
5.7655229
6.0277286
6.0012914
5.9730057
5.9421884
5.736829
5.7756456
5.4592246
5.7011531
5.6652567
5.4126835
5.3647688
5.0690755
5.007158
4.5820893
4.9547985
5.276678
5.583349
5.22348
5.1705641
4.8269796
4.8945008
4.5171925
4.892121
4.8265473
4.4313314
4.0065346
4.4499593
4.5135183
4.0705764
3.9967547
3.4710764
3.558154
4.0786523
4.1459587
4.5784177
4.9481896
4.9995039
5.3232965
5.0103822
4.6373772
4.2120421
4.646601
4.2129292
4.72865
4.8020271
5.2664368
5.5121914
5.5623512
5.3302051
5.7216945
5.7706173
6.0926464
6.2151437
6.2427817
6.1265887
5.8153639
5.9679067
6.1181644
5.8453676
5.8113656
5.5019415
5.7338778
5.4455628
5.7033717
5.6732227
5.3997297
5.4345078
5.4664001
5.1757554
5.4802366
5.2114851
5.5417987
5.3010173
5.6540123
5.6094325
5.9316995
5.3922367
5.4516816
5.0305924
4.9539174
5.2448827
5.1876095
5.1283557
4.712582
5.0634663
5.3667087
5.4069425
5.1149055
4.7512442
5.0921594
5.0465428
4.6940072
4.2796246
4.3492249
4.7784132
4.3739328
4.876759
4.5180255
5.0781865
5.5457025
5.9306589
6.2479001
6.5117485
6.4926994
6.4320334
6.4532171
6.1703428
6.1305057
6.2126486
5.8828342
5.7642305
5.8186023
5.3781979
5.3053631
5.4829413
4.9996164
4.9242911
4.8514263
4.5675078
4.6455527
3.9284198
4.3415389
4.2645594
4.1921119
4.1146521
4.7107055
4.4225053
3.6991237
3.7859313
3.8523751
3.4862407
4.3276783
4.4068254
4.2770294
5.0056027
4.9295734
5.4968685
5.5074034
5.9451257
6.2972443
6.6485195
7.0232544
7.3305549
7.637895
7.5825335
7.2092454
6.7554919
6.3509979
6.8796767
6.3472424
5.7599316
5.168897
5.1279749
5.7666171
4.2601753
2.9318988
2.9490916
4.1486609
5.3427287
5.4679663
6.3729544
6.8992362
7.2104131
6.3759771
5.7783571
4.2767229
2.5755553
1.0985282
1.1969352
2.515422
1.2508106
0.44820476
0.40618341
1.1509411
3.009613
3.0237147
4.1682277
5.7728843
6.7650984
5.2130395
5.6985071
4.0490617
2.4575805
1.2356838
0.4415869
0.39907464
1.1341776
2.5081388
1.0373856
1.1372847
2.8047869
2.7626059
4.1487211
5.701303
6.7270771
5.0732887
5.0222212
5.2133518
2.7371635
0.94261275
0.36254375
0.37050483
1.0040901
2.9358987
5.3182576
6.5837367
7.2009292
7.2601414
7.3414805
7.2849887
6.8050854
7.0128457
6.939799
6.8941925
6.9435751
6.9874865
6.5966196
6.5228849
6.440045
6.5208945
6.6478706
6.7153071
7.0521534
7.1416768
7.1029581
6.8005468
6.8539658
6.89648
7.1841934
7.4016527
7.4260416
7.3547424
7.06469
7.0773611
7.1116547
7.0991203
7.0611372
7.0417663
7.0019908
6.5884344
6.656127
6.7096204
6.7528768
6.6967861
6.7346932
6.7862212
6.8761984
7.1650215
7.1548534
7.1186278
7.1025517
6.765722
6.8110295
6.9338377
7.1997566
7.2303369
7.241323
6.988538
6.9639806
6.8470844
6.5669886
6.500978
6.4392426
6.3976695
6.3714224
6.3697057
6.3919271
6.4154977
6.3937524
6.0835849
6.1123243
6.0694133
6.0385558
5.6252684
5.6720819
5.7322764
5.6873641
5.1690423
5.2409846
5.1608465
5.0848397
4.3656058
4.4942185
4.7293808
4.8200873
4.1169905
4.0149883
4.4251012
3.7775529
4.2895461
3.7662937
3.6907076
3.6222834
4.1397936
3.6240388
3.5579512
3.5057203
2.972322
3.011222
2.2642154
2.9417699
2.8937939
2.2254218
1.6503258
1.6280724
2.508277
3.4295243
3.2285277
4.125
4.0650176
3.1630619
2.2251943
2.2068189
1.2281588
1.263218
0.65531574
1.0336678
1.6662611
2.3861135
3.018981
3.5894482
4.0519706
4.4768388
4.8446832
5.198425
5.5105805
5.5652355
5.8522559
6.1140821
6.3483017
6.5567543
6.5228457
6.4044999
6.6209384
6.6500745
6.4465215
6.47779
6.5840348
6.3794465
6.4055174
6.1794379
6.148669
5.9820671
6.2445416
6.2091451
6.1689784
6.3148785
6.0696814
5.8844658
5.9410623
5.7592306
6.0658034
6.3344655
6.5678993
6.5341885
6.2911316
6.1734946
6.4440231
6.4790715
6.2245855
6.2639049
6.3693256
6.6030609
6.6825539
6.6982012
6.5025805
6.2750872
6.0171933
5.8477077
6.1416661
6.3980402
6.6212048
6.8131813
6.714687
7.0632829
7.0261243
7.0064115
7.0065018
7.3314344
7.6379237
7.7989396
7.8383251
7.9176402
7.8919554
7.8068021
7.7570898
7.6770824
7.5829842
7.2051966
7.2621701
6.9023935
6.5978926
6.4584804
6.5371519
6.9489459
6.9907117
6.9444163
6.5319024
6.6040364
6.7184247
7.0538959
7.3420386
7.2867729
6.8082902
7.0149127
6.651609
6.8016807
7.1041745
7.1418831
6.8544629
6.896387
6.7674603
6.6610485
6.5989408
6.6550875
6.6558094
6.7015752
6.7555683
7.1004517
7.1119818
6.7875274
6.8765349
6.6840062
6.7554778
6.7334805
6.723522
6.5258219
6.5449975
6.5637951
6.580043
6.6744631
6.843784
6.7630693
6.6937525
6.4875444
6.468589
6.4470827
6.6604217
6.6482317
6.4245881
6.3274579
6.5704017
6.5383526
6.5187298
6.4500172
6.4068356
6.3674441
6.0682672
6.1206547
6.0302612
6.3374464
6.2963446
5.9694024
5.5954407
5.7281837
5.8720295
6.0230863
5.7007289
5.497307
5.569377
5.9215381
5.9675974
6.1056156
5.8048681
5.6221259
5.6712055
6.0077503
6.2955899
6.201592
6.4724767
6.408832
6.3841885
6.0774553
6.1636336
5.8319545
5.7796367
5.3758185
5.3031355
5.1092378
5.1934393
5.6522391
5.7085739
5.7605608
5.8780571
5.4927402
5.4351512
5.2581852
5.3216553
5.1779378
5.6660827
6.0546959
6.1175855
6.157428
6.2359927
6.5061654
6.5230243
6.5839234
6.3532938
6.3788882
6.6106864
6.6213156
6.400353
6.1402191
6.2518528
6.3674064
6.4841043
6.2719741
6.2513588
6.2297174
6.448027
6.4280779
6.2056905
6.0491893
6.3016238
6.3255925
6.077643
6.1038913
6.3465996
6.227655
6.201717
6.1731241
5.8856581
5.9209399
5.7609923
6.0791348
6.0448377
5.7166586
5.3367491
5.5575966
5.7641885
5.9581549
5.9268419
5.8924574
5.6097987
5.6490004
5.4056135
5.726063
5.6858408
5.63963
5.3076513
5.2351989
4.8804249
4.9458868
5.2496905
4.9099194
4.561285
4.4772087
4.0893813
4.537708
4.9524201
5.0222984
5.408841
5.1611545
4.7034502
4.6143063
4.1310727
4.2059846
4.6006488
4.1630826
3.6953676
3.6035729
3.0785233
3.687745
4.2707742
4.3514266
4.8972608
4.6365715
3.9834027
3.8898392
3.1975315
3.2536497
3.749545
3.1404497
2.5137414
2.4523746
1.884461
2.7460504
3.5692872
3.6450479
4.4079887
5.0410479
5.5501538
5.9601957
6.2922991
6.2481159
5.8991299
5.8582022
6.2197078
6.2640132
5.9217444
5.9738255
6.0100758
6.3411403
6.3674228
6.3414363
6.3139372
6.3136615
6.2627052
6.2186201
5.9715059
5.8738839
5.3596142
4.9304756
5.0625248
5.3143395
6.0938528
6.0008268
5.1922983
4.1482589
3.6728766
3.0081491
2.0475269
2.0375167
3.7244174
4.238662
2.9550339
2.896739
3.7853759
4.7571177
5.5521272
6.2093434
5.9288691
6.4391839
6.5076261
6.2905649
5.6709853
6.0268009
5.9348873
5.3225598
4.3992608
4.5815553
4.7095602
3.9304712
4.8679228
5.4232052
5.5695613
5.3327657
5.0697963
4.8036405
4.538822
4.3215093
4.1957887
4.2034016
4.8644457
4.9579879
5.4911498
5.4320225
5.4920343
4.9508057
5.0201446
5.1088283
5.6093619
5.5530763
5.6113034
6.0185514
6.0628734
6.0966251
6.4069373
6.4462133
6.4645257
6.191133
6.2661897
6.2959499
6.5508469
6.5639502
6.3209927
6.2536757
6.5104191
6.496163
6.2240511
5.9011161
6.0000656
6.1103156
5.8013177
5.9532042
5.9831993
6.1276956
5.8590246
6.0348633
6.0113652
5.9858055
5.7172319
5.6840404
5.4484401
5.4887704
5.7980877
5.829428
5.5260708
5.7468379
5.7743767
5.5601325
5.2336238
5.489896
5.4576096
5.4228868
5.3855472
5.344888
5.3004269
4.9649602
5.0146796
4.6787397
5.0542115
5.0020426
5.3578629
5.0816964
5.4631065
5.5114066
5.1368569
4.8361952
5.2796336
5.2223219
4.7696889
4.2761708
4.6658319
4.726906
4.293698
4.2288421
4.6208845
4.2192449
4.5985118
4.5370191
4.1269961
3.7227329
4.1538617
4.0802631
3.9277561
3.8059139
2.6452136
2.847126
2.9637503
2.1517977
3.0319691
2.9108477
2.0304483
1.1436593
1.7435116
1.7441896
0.71682048
0.81236772
0.42699197
0.38171585
1.1599801
0.60366388
1.2015957
1.8704147
1.857921
1.0357963
1.1812484
0.47029951
0.90335675
0.80412153
0.42281455
0.23635866
0.26024951
0.63218616
0.24932876
0.2268566
0.21874047
0.22548562
0.2344111
0.26620576
0.44305807
0.8427964
1.9454378
3.5748014
4.8648012
5.8402291
5.941951
6.0796749
5.9822692
5.1644064
5.2901472
5.0020128
3.6243744
4.2080173
4.1098898
2.8727554
2.9367524
1.9303389
2.2700644
3.1990841
4.0897956
4.7816568
5.3765066
5.8203995
6.1957715
6.2431038
6.2754869
6.2278885
5.8688071
5.9335319
5.8880178
5.4400636
5.5088465
5.4457073
4.8936606
4.9802737
4.8726418
4.9472158
5.0232954
5.5705234
5.9946502
6.3265267
6.3554622
6.3265001
5.9876309
6.0352004
6.1038037
6.3987039
6.3729331
6.3235611
6.2800634
6.3554899
6.3970847
6.1058963
6.0086763
5.9449641
6.0497677
5.7038627
5.5604322
5.6215271
5.7582762
5.3466313
5.1492976
5.0601569
5.270697
5.4764538
5.8553399
6.1602655
6.4348076
6.2862333
6.2022448
5.9249179
6.438823
6.5079222
6.0314976
5.6667554
5.5445594
5.9389011
5.3363775
4.7553161
4.4113532
3.8008403
3.9518847
4.8711582
5.4377512
4.7435037
4.6153313
5.2514519
5.8226276
6.2739799
6.6634314
6.9471273
7.1943467
7.4483937
7.6770873
7.7294861
7.5008207
7.5230383
7.6287589
7.6574139
7.6038621
7.5595546
7.5930389
7.5207065
7.4074756
7.0644425
7.2802359
7.3279032
7.31238
7.2254782
6.9972315
7.1278522
7.093827
6.8771382
7.0280125
6.9215388
6.7229762
6.3616733
6.6217584
6.5784079
6.5142048
6.9830894
7.2955061
6.51633
5.6290754
6.2544155
6.3197917
5.9195957
5.386266
5.9185239
5.8213346
6.2743083
6.5790778
6.6217891
6.921267
6.8764884
6.6640838
6.7231603
6.3609141
6.3994459
6.6863466
7.0976706
6.966003
6.8872247
7.0336875
7.2646687
7.2774052
7.359589
7.3892637
7.3453326
7.170746
7.1898352
7.0643643
7.0910785
7.3064416
7.3162205
7.3955865
7.411749
7.3818647
7.2198766
7.2323217
7.1114427
6.910563
6.8355045
6.7551218
6.6829525
6.6092446
6.5487253
6.4930708
6.4559001
6.4329828
6.4316596
6.4517624
6.4878358
6.5047732
6.5582596
6.3109753
6.2811413
6.208654
6.2420115
6.1915677
6.4702798
6.4512135
6.1656476
6.126522
6.1538553
5.7906742
5.870827
5.9751873
6.0166891
5.9197685
5.5213912
5.6634908
5.6055293
5.4499391
5.3227891
5.4039175
5.8453864
5.807307
5.7481219
5.2547223
5.3411387
4.7008432
4.8136561
5.0150449
5.2360261
5.1572348
4.915778
4.2333521
4.6160323
4.7186098
4.3616436
3.9889944
3.8456154
4.697991
4.5912272
4.4654747
3.5027351
3.7270976
3.6306106
3.5512296
3.3357332
3.2762572
4.197288
4.2275006
4.1521429
4.322595
4.2538159
3.4601086
3.5360544
3.2702495
3.3244307
3.389741
4.3077313
4.4839117
5.1274628
5.6342462
5.5726752
5.0530277
5.2194253
5.6814227
6.0589518
6.1521155
6.4411897
6.4654445
6.1911745
5.8637486
5.7375317
5.2878139
5.4710147
5.4095737
5.812619
5.9561023
6.2552278
6.5127882
6.4710566
6.5629743
6.5278793
6.2834997
6.3277953
6.2131221
5.9069999
6.0574478
6.0128153
5.689165
5.7482481
5.550384
5.6066066
5.6586937
5.9984916
6.28961
6.5332649
6.6184363
6.598437
6.364115
6.3941967
6.4997606
6.6956801
6.679701
6.646094
6.6163925
6.7129193
6.7407919
6.5544573
6.4415917
6.3982919
6.5194112
6.3120322
6.1629567
6.204534
6.3448196
6.1116314
5.935512
5.8769581
6.0664018
5.8078077
5.579334
5.3397973
5.0698733
4.7906384
4.5036508
4.5782548
4.8598418
4.3079008
3.9116115
3.8144771
4.2237476
3.6416162
3.1186291
2.6270783
2.6509368
2.2608723
1.2756352
1.3022392
1.7815314
1.7829512
1.784573
2.6928527
3.6038153
4.4004541
4.6559564
4.7351168
5.0048279
4.9327859
4.3842514
3.9881555
4.0716424
3.6817218
2.7447609
2.2905591
2.2140756
2.5501813
3.1117374
3.694605
3.0480829
2.9914117
2.2791101
3.0563476
2.5261819
2.2069769
1.1786791
1.5987816
1.5662073
2.2994967
2.3278744
3.1808572
3.2690347
3.8720678
3.19552
3.8487112
3.9393846
4.461724
4.8447662
5.1635401
4.805656
5.1345083
4.8064912
5.1448637
5.1037999
5.0604582
4.7326371
5.1029406
5.1491321
4.7844487
4.8341069
5.1918827
4.9017775
5.2892281
5.6405847
5.6000239
5.2402455
5.1893688
4.9013
4.9663665
5.3902386
5.4422315
5.4906587
5.6772512
5.3344572
5.0912054
5.0292869
4.5678158
4.4923236
4.844071
4.786161
4.3575435
4.4212871
3.9862765
3.9073408
4.4178589
4.3457729
3.8332729
3.7630658
3.2027237
3.8223179
4.4240668
4.9669268
5.0337551
4.4984372
4.1342646
4.7828761
4.7090362
4.0553814
3.3162302
3.387413
3.8979128
3.2708097
2.6036934
2.5534159
1.8927818
2.8148379
3.710977
4.4823051
4.5586464
3.7849204
3.5414899
4.4124614
5.0892812
5.1611343
5.2462169
5.3842841
5.5470587
5.9214691
5.961705
5.5996194
5.4461855
5.8556622
5.8088906
5.7199732
5.7722065
6.1340059
6.4270322
6.4037602
6.3821281
6.3822159
6.7004825
7.0659879
7.0660261
7.078073
6.7367432
6.4608045
6.4768294
6.2033528
6.1706218
6.141653
6.4389137
6.4560294
6.1756968
5.8271781
5.8693315
5.9420001
6.0348573
5.6974486
5.8381668
5.8731364
6.009907
6.1499599
6.2903027
6.4311229
6.5705951
6.8126477
7.1881821
7.4632081
7.6671268
7.7200168
7.8540546
7.9010324
7.9315258
7.9010333
7.7845835
7.8430388
7.7892215
7.667175
7.6911579
7.4835742
7.4630381
7.4208489
7.567122
7.5866862
7.4498717
7.4297657
7.269889
7.2614513
7.1333548
7.3440482
7.3499066
7.1503346
7.1700267
7.2953573
7.3061596
7.4622948
7.3824733
7.3744694
7.3006331
7.4921201
7.709974
7.7662756
7.5387503
7.6313176
7.7305365
7.7585312
7.5598225
7.5357371
7.487605
7.4959041
7.3433976
7.3348941
7.2069699
7.4090938
7.4135445
7.2233021
7.2438649
7.3699409
7.5153678
7.6557727
7.5212126
7.3814691
7.4398897
7.4369818
7.3597125
7.5631038
7.3584664
7.1213367
7.1025021
7.3379092
7.3341714
7.3082112
7.067529
7.1867097
7.0683211
7.1244492
7.2212356
7.4834294
7.6910998
7.5866639
7.5670461
7.4207968
7.4299356
7.3500243
7.3438601
7.1332233
7.2614946
7.2697368
7.1503856
7.1702762
7.3747115
7.4498686
7.4623565
7.3825502
7.1872465
7.306065
7.2951994
7.1095727
7.08408
7.0700491
7.0094799
7.0157097
6.9391124
6.933379
6.7830837
6.8800438
6.8857342
6.7939907
6.8069206
6.954851
7.0285018
7.0349422
6.9599448
6.8170646
6.9069359
6.9006808
6.7581216
6.8192976
6.8117297
6.7360927
6.7450847
6.6283651
6.6145876
6.4294033
6.5694065
6.5762106
6.4439313
6.4589664
6.6412335
6.6538722
6.7674859
6.6008812
6.5931953
6.4273052
6.5551176
6.8192546
7.0842451
7.0700401
7.009867
7.0159322
6.8862221
6.8803224
6.7840107
6.9341002
6.9391922
6.7944464
6.8069976
6.9011592
7.0285871
7.0350063
6.9072215
6.8169541
6.9597189
6.9545952
6.8826142
7.0300778
7.2758762
7.4731525
7.2694321
7.0108272
6.9021795
7.197451
7.2016631
6.9225922
6.9434992
7.049512
6.9038248
6.975704
7.0493879
7.109164
6.8577602
6.8641427
6.8033171
6.9434546
6.9284493
7.0547061
6.9800021
6.8386868
6.8289177
6.9236464
6.7834262
6.767575
6.7579808
6.7456962
6.7364399
6.6161491
6.629038
6.4449911
6.5768521
6.5944239
6.6014732
6.4726921
6.6535367
6.6414663
6.4590727
6.2583742
6.4274361
6.410042
6.5350842
6.3993276
6.4092741
6.24082
6.2232743
5.9994716
6.1981158
6.2061838
6.0182716
6.0374758
6.2571823
6.2722637
6.4718687
6.4863846
6.6663675
6.8291774
6.9756682
7.0493539
7.055137
6.9798608
6.8386973
6.9284587
6.9234411
6.7833418
6.8576247
6.8641499
7.1242742
7.0682079
7.0740905
6.9993546
6.994953
6.8502367
6.943428
6.9489906
6.8593831
6.6999536
6.8119737
6.8028461
6.7910411
6.6772004
6.4978376
6.6260719
6.6209636
6.4553785
6.5871682
6.6041397
6.4791129
6.6426088
6.6486622
6.5218375
6.5099908
6.6883038
6.5787151
6.7589746
6.9233371
7.0675595
7.3082033
7.4920445
7.7099997
7.7662597
7.8430504
7.7304941
7.6312155
7.4875312
7.5356121
7.49568
7.413326
7.4091091
7.2069122
7.3349351
7.3431484
7.2230093
7.2716787
7.1511383
7.1644744
7.1063998
7.0935746
7.088784
7.0147687
7.0179163
6.8795062
6.9692694
6.9653758
6.8705761
6.7114504
6.827498
6.9030175
6.9084984
6.8462218
6.9836471
6.9879303
7.1107119
7.0347895
7.0323181
6.889989
6.8980523
6.741805
6.8538401
6.6934249
6.6886443
6.6724135
6.834339
6.7213572
6.5452432
6.5341683
6.6684394
6.5051672
6.6351916
6.9030564
7.1511039
7.1648423
6.9087932
6.8463508
6.9838003
7.1063432
7.0934918
7.0887539
7.0738929
6.9490668
6.8597047
6.9992148
6.994949
6.8498794
6.6890888
6.6771465
6.7908375
6.6265848
6.6213652
6.4863493
6.6659678
6.5551145
6.7373507
6.7250405
6.8880734
6.8117221
6.8063344
6.7887567
6.8668598
6.8605186
6.6890297
6.7012077
6.6095948
6.5955032
6.7826478
6.7137562
6.7211379
6.5212513
6.5053387
6.4216152
6.6444353
6.6521425
6.43889
6.4565905
6.5366787
6.6233448
6.7135996
6.5290714
6.5147772
6.4998935
6.3857113
6.4025366
6.1698753
6.3069764
6.3229969
6.3374746
6.5415361
6.4329961
6.6352503
6.5498257
6.7450392
6.7384072
6.6724935
6.6782234
6.4707028
6.2292014
6.3270665
6.3105776
6.4174922
6.1878963
6.2044356
6.0753545
6.0554321
6.0337177
6.2926097
6.2730659
6.1659829
6.1894328
5.903019
5.9298142
6.2096581
6.1201706
6.3851633
6.6186286
6.8388572
7.1499506
7.4072366
7.4228522
7.1772944
7.2291087
7.2340183
6.9611808
6.8793821
7.1823936
7.1503268
7.1458821
7.1172121
7.1129072
7.1447105
6.8158017
6.7682877
6.7925449
6.8156333
6.8605292
6.6450398
6.6971145
6.7619567
6.8286341
6.8327255
6.9088929
6.7479003
6.6590698
6.6479092
6.4463512
6.4592285
6.5667735
6.3649435
6.4977637
6.5106761
6.6427746
6.6490469
6.8119429
6.699658
6.5218901
6.325902
6.4870727
6.4789347
6.4630654
6.4554338
6.4369055
6.2366355
6.2299956
6.2063748
6.1988668
6.3999056
6.2260194
6.241583
6.0197131
6.0012872
5.7597198
6.0023269
6.017161
5.779275
5.7565288
5.4956736
5.5219456
5.7808451
5.8018182
6.038258
6.2297946
6.2365739
6.4357263
6.0532627
5.8188903
6.0502283
5.8194812
6.0533813
6.2723516
6.2874258
6.3000028
6.0835656
6.2643503
6.2599889
6.0693834
5.8366025
6.0697768
6.2602349
6.264393
6.4623763
6.3001028
6.286553
6.0699325
6.0835154
6.0982284
6.3133206
6.3257539
6.4864933
6.2900722
6.2855971
6.0981139
6.2861834
6.2901581
6.1107855
6.097706
6.3129753
6.154512
6.3775028
6.5786491
6.7591474
6.9233406
6.9284167
6.769031
6.6809056
6.8519855
6.8486799
6.6703521
6.4713316
6.4830882
6.5899049
6.3899566
6.2606386
6.2473046
6.233893
6.2195117
6.3508423
6.1257794
6.1100243
6.0935505
6.0758183
6.056138
5.799444
5.8218139
5.6198903
5.9085502
5.8844676
5.5909412
5.2704306
5.5192406
5.5458433
5.2487826
5.2170517
5.1823855
4.8808392
4.5464456
4.9549369
4.6412655
4.1501163
4.0670092
4.4838334
4.0515873
4.4518958
4.3954891
4.7569986
4.7069181
4.6539251
4.2534257
4.1910587
3.7882302
3.8523269
4.2790452
3.8514213
3.7856182
3.7181597
3.6540708
3.2026797
3.6317576
3.168668
3.2404425
3.6517747
3.0883559
2.6817081
2.6015617
2.2369341
2.7550745
2.8144263
3.2760339
2.7554647
3.2026077
3.1297829
2.6729801
2.269765
2.334649
1.8937883
2.3019928
2.3590773
2.7398557
3.1490821
3.719232
3.7851139
3.212558
2.8010302
3.3714953
3.3055218
2.8789157
3.3421273
3.4074698
2.8772252
3.3333864
3.2667493
2.8145043
2.3917804
2.4508232
2.942967
2.4179645
1.9965443
1.9432192
1.4332925
1.7562526
2.0648939
2.4563044
2.4150907
1.673704
1.3121741
2.0247498
1.9884152
1.2892611
0.72017061
0.68713046
0.98507776
0.58957437
0.32971995
0.37063827
0.25969836
0.58307572
1.0674609
1.6815372
1.7143973
1.0893871
0.88036443
1.3964108
1.3575958
1.8253222
1.379764
1.7369073
2.0896008
2.5399336
2.5799414
2.1311334
1.4277471
1.8683747
1.8471958
1.3996458
1.1290944
1.1518424
1.770581
1.4190697
0.91430363
0.88819774
0.50814988
0.62776149
0.80118743
1.1986912
1.1596135
1.8888452
2.7711372
2.4328441
3.4198325
4.2649756
4.3364415
3.4755164
2.4512596
2.4785571
2.8664216
1.903088
1.3640439
1.3927608
1.4262538
1.4448331
2.4333972
3.3459516
3.3350385
3.4064781
4.2563172
4.9451025
5.4883603
5.9194518
5.8553709
5.8943989
6.2451645
6.2891852
5.955272
6.0060226
5.9714178
6.016919
6.3399078
6.364813
6.3375248
6.3808888
6.7121356
7.0623244
7.0251022
7.0435268
7.1036264
7.4018416
7.425978
7.3548537
7.0777985
6.7360866
6.7862424
7.1113301
7.0995326
6.7533041
6.8477209
7.1550577
7.1188951
6.8111722
6.9333983
7.1996195
7.1839419
7.2645834
7.5007131
7.7294013
7.5228833
7.3063585
7.2300086
7.2410133
7.1647051
6.8753113
6.9874503
6.9631834
7.0903836
7.0633094
7.2766684
7.3594869
7.3889056
7.3451858
7.3121329
7.225124
7.448101
7.4078411
7.0640062
7.1941604
6.946626
6.9965395
7.1270156
7.3266202
7.2796411
7.0927651
6.8745686
6.6610211
6.5084092
6.2664948
6.3552523
6.720796
6.9193063
7.0243148
6.5714479
6.6157123
6.3061438
5.9034469
5.8035519
5.5960112
5.2102113
5.3499512
5.8882066
5.7850974
6.2367734
6.565735
6.4943852
6.9776928
7.2943503
7.5927501
7.5205818
7.5594264
7.6037779
7.6572534
7.6285735
7.4114492
7.3818104
7.3953183
7.315839
7.1108359
7.2318833
7.2189647
7.1887479
7.1700613
7.0326496
6.7988356
6.7121876
6.6167005
6.5298502
6.4389118
6.3625184
6.291949
6.3328175
6.0223582
5.9614979
6.059595
6.1127938
6.4022291
6.445524
6.4685249
6.4047687
6.1116766
6.0496708
5.6576672
5.607787
5.5492704
5.0141427
5.0835955
5.1622942
5.0941544
5.6004802
5.5410662
5.4828224
5.4281035
4.8583601
4.9445675
5.0262676
5.1741112
5.6399066
5.5825286
5.0894085
5.284075
5.7150021
5.7668831
5.3560279
5.4164032
5.2384831
5.6961315
6.0693175
6.1567666
6.1940273
5.8666812
5.7483885
5.3021385
5.4733176
5.5291189
5.3652411
5.230545
5.1546878
5.6645021
5.667236
5.7227488
6.1015205
6.1012096
6.4027797
6.4246959
6.403953
6.0925831
6.0600424
6.1304232
6.1678944
6.1399605
6.4383103
6.4554283
6.1744285
6.200412
6.4747146