/*--------------------------------*- C++ -*----------------------------------*\
  =========                 |
  \\      /  F ield         | OpenFOAM: The Open Source CFD Toolbox
   \\    /   O peration     | Website:  https://openfoam.org
    \\  /    A nd           | Version:  7
     \\/     M anipulation  |
\*---------------------------------------------------------------------------*/
FoamFile
{
    version     2.0;
    format      ascii;
    class       volScalarField;
    location    "300";
    object      omega;
}
// * * * * * * * * * * * * * * * * * * * * * * * * * * * * * * * * * * * * * //

dimensions      [0 0 -1 0 0 0 0];

internalField   nonuniform List<scalar> 
25278
(
155.2639
148.90386
148.34058
148.3406
142.87628
148.90361
155.62962
155.26394
155.62954
155.66352
154.52214
154.0277
150.88476
147.27495
153.02607
148.29895
148.88992
154.33485
164.15644
156.63382
151.08549
149.42721
147.97675
151.43546
153.88768
151.4355
147.97668
151.04447
151.68876
153.09402
155.5585
154.11558
161.92133
156.58379
158.20155
158.98404
159.46698
161.6525
161.116
167.36266
163.5328
164.05023
167.51712
167.82547
161.74256
156.43076
152.77694
154.37595
158.52987
157.84391
159.53797
158.3892
173.47102
168.14408
163.25596
163.68464
165.78453
165.37932
175.08439
171.1615
171.28648
174.87683
177.91403
167.29732
167.06206
168.0685
168.2638
179.69878
180.34091
178.35107
194.55527
188.03258
181.21375
174.91055
169.01203
165.39614
158.19641
153.0919
149.42387
146.96069
143.93017
152.93725
154.28079
163.78349
149.09993
146.16523
164.26206
186.68948
171.42939
158.69969
160.51449
174.11932
171.76389
202.59972
203.21529
173.79306
173.30737
160.79017
163.25358
176.32233
173.60355
203.17623
203.12963
176.0682
192.70669
188.85768
189.62003
250.97762
249.57225
309.26927
202.94319
208.06291
320.16136
330.29269
251.4864
251.64
340.91141
212.98215
206.79029
206.96778
163.83449
149.09648
142.86416
172.17643
203.47421
250.50877
310.08356
203.14585
164.33066
146.16398
143.91541
146.94106
154.30167
152.99665
171.70187
186.99365
189.93985
208.31597
321.19545
252.09623
252.70036
331.61527
342.5759
213.26926
193.05214
189.17665
173.54289
174.08919
204.12744
174.56756
153.13269
158.84734
160.65047
160.89421
154.39509
163.34795
176.29348
203.96796
252.9914
388.35804
707.84282
703.80135
384.90664
254.68642
193.88066
189.9329
209.09187
215.65112
354.16718
341.34859
254.34542
380.72432
655.27746
732.94942
1258.455
1093.6317
632.11271
635.11058
1073.9925
1232.0666
735.05935
658.18265
383.60452
257.0668
204.10779
173.98327
176.71696
195.02354
257.67628
364.72236
350.10588
211.69958
164.60151
191.03228
218.63093
215.78345
378.50012
827.55991
1435.9631
1472.3005
826.63167
365.85354
212.96804
192.73546
175.65619
163.7297
156.57643
151.68467
154.08237
155.5514
158.95757
161.83769
163.47804
164.01021
159.45855
161.62501
161.06671
167.2502
167.43591
167.77353
164.02181
158.88329
154.13252
152.77599
155.82259
160.44408
160.83982
158.07473
156.43263
159.66373
160.42821
164.67577
168.08985
162.50589
161.73125
163.64934
158.52229
154.37686
151.07725
156.5666
157.81827
163.16597
167.87067
170.93475
171.11321
163.6377
165.69314
165.24168
174.71941
174.59178
177.51918
167.17037
159.49972
158.29403
172.99992
166.88035
177.84204
179.78767
167.8908
168.14735
179.29389
179.0309
177.41019
174.69639
171.39013
171.54394
164.37449
166.2635
165.55683
166.92324
159.99942
161.55607
160.09939
164.565
162.75571
163.54172
161.59282
165.58401
164.87584
168.38397
168.79695
172.00532
165.30991
167.05452
166.30789
174.6602
171.73292
176.37627
174.19032
171.83659
169.9456
166.97149
160.44247
155.82362
154.13556
158.88954
159.66727
160.42165
162.51351
168.11392
164.68175
164.04929
169.42391
165.93247
169.85666
171.71547
171.8048
171.70681
175.02041
169.4195
177.47227
176.92294
185.92809
185.36645
198.95617
186.21471
177.4057
169.35019
168.94306
175.43376
176.83026
185.55767
174.70057
174.8507
185.07437
198.60726
199.47616
186.17961
201.91208
199.90761
219.72626
217.21756
205.82705
198.44885
191.36281
185.67712
180.24544
175.75653
175.87019
179.08197
174.41041
174.30407
179.283
184.59925
184.47731
180.25475
177.07455
177.60764
180.09563
175.69475
175.86894
171.94113
174.39575
174.20104
178.9498
178.91481
184.08609
180.12607
185.31375
185.28348
185.6716
190.62008
191.12737
198.11179
197.65819
191.18692
185.9261
177.01975
169.40127
169.8533
177.57296
179.98803
175.61745
171.6752
171.74314
171.62829
175.63699
175.79069
178.91636
174.29798
174.16688
179.08135
184.31461
180.10866
180.13815
185.49153
185.50182
190.72788
190.28813
184.23861
184.05451
178.82242
174.11223
174.34283
171.91829
175.81652
178.8085
183.93038
180.0475
185.19776
185.14899
189.98424
189.7444
189.4829
184.79359
177.15664
177.77711
170.48887
172.12972
172.12642
175.9148
175.65806
178.74881
178.79933
174.47497
174.37848
174.68032
172.42499
176.10761
175.85166
178.79613
178.87874
183.66899
180.09256
179.96191
179.98964
179.85918
183.80816
183.75205
189.34286
184.97934
184.74473
184.9244
189.0786
189.1918
183.70733
187.25501
181.62258
176.48599
176.60222
181.68728
181.72105
181.83286
176.56129
176.39967
176.63
176.57815
180.7992
180.7557
191.62899
195.50357
195.00465
206.4234
186.87935
187.20091
208.01938
238.86986
215.99002
249.8667
246.07838
243.08207
214.89931
236.8006
284.44457
290.42288
367.23054
270.41263
221.22802
193.29664
210.42941
197.32556
196.40966
192.6033
219.21392
229.63109
232.48518
303.02761
349.78138
501.85302
513.03061
365.77798
268.38238
303.17662
267.54092
255.34027
242.37825
230.7899
220.52355
212.00373
204.28372
197.66314
191.17955
191.01122
198.1156
198.32538
206.20276
205.29535
197.26014
196.76686
190.55859
185.90108
190.70195
190.58922
196.66819
189.98725
190.2814
184.2839
188.3674
182.14505
176.52689
171.60865
164.39507
163.69635
165.60199
166.29246
174.78424
174.90406
171.51707
176.77917
181.19702
187.60555
208.26388
195.84709
196.4817
210.0673
224.60456
222.39135
193.70749
197.60208
198.72244
236.44004
233.39409
315.88824
277.24198
240.87976
216.37417
217.5829
253.17473
243.05996
297.36292
247.81883
244.85262
291.5766
387.75954
386.71829
278.91495
314.79107
541.57605
560.61987
438.87321
337.27698
276.43755
241.56345
217.73779
202.22716
190.27706
179.31702
167.87935
160.012
161.55388
160.09686
158.07508
160.83825
161.58608
163.53912
162.76195
168.39067
164.87028
165.57715
168.79342
172.00548
165.30556
164.57746
166.31443
167.05606
174.84677
174.74277
171.75974
176.44601
174.23714
171.85696
169.95441
170.47995
172.13368
172.13619
174.49754
178.84331
175.94465
175.69514
178.83475
183.91697
179.91203
177.17835
177.79252
179.9796
175.85805
176.10638
172.42192
174.68402
174.40345
178.82463
178.88976
183.70181
180.10531
184.9522
184.8034
185.04891
180.04419
183.83402
189.46729
189.68419
184.89647
190.13086
185.42723
185.57882
189.83705
190.15141
195.87025
196.23495
203.68815
196.58429
197.35107
197.43864
198.26678
205.72759
206.71594
215.98114
214.97319
205.29299
214.64308
215.63712
227.56363
225.79407
224.48362
213.97118
204.99678
197.15206
203.81162
195.52927
196.06003
188.74355
182.38849
176.80533
179.44081
179.49656
186.16983
182.58374
188.88757
193.58335
193.1549
185.72654
185.36169
179.03576
179.12154
176.66418
181.99533
185.09802
188.21706
181.29728
181.31001
181.80689
181.98107
184.57165
184.33203
192.54418
189.14476
189.66407
193.38427
203.67523
198.43693
197.89527
202.84308
215.85123
208.54908
201.95639
203.00655
196.59621
205.1501
204.62038
212.43632
213.54545
226.83284
215.57646
214.51491
224.90064
223.42172
211.3414
201.18724
192.65105
192.14811
188.0719
195.03085
200.44013
206.3642
196.43866
197.15871
188.65332
191.87242
183.66834
183.59981
191.31274
200.88302
201.86766
214.40876
207.47962
220.13621
221.74491
223.02731
209.74047
217.72476
225.86763
208.90579
196.75927
186.8217
177.69771
167.00666
167.61199
168.46306
178.82802
177.35409
177.10375
167.5799
168.25707
169.01537
168.35738
178.45452
178.30528
177.06819
184.26416
182.64768
180.67953
178.71442
176.5078
176.64512
178.97397
178.80121
184.82014
181.84096
181.7584
184.64945
184.46345
181.67624
181.65499
176.73664
178.94189
184.37076
186.99111
180.83239
182.75975
189.4914
189.83107
187.21911
187.50825
180.99485
180.90189
183.05073
183.10143
190.28308
190.74012
187.82365
195.76204
191.71254
187.7842
187.54863
191.32375
199.10038
194.18525
194.58828
199.76037
205.34715
204.39603
195.18359
199.09121
199.97309
211.4941
212.96663
220.07972
205.37352
194.25009
185.48075
185.65462
186.4295
188.41379
188.9027
199.95212
198.75257
195.85588
195.00338
197.72983
187.49708
187.25764
196.83896
198.78559
188.4174
188.7242
189.72496
190.44549
191.05284
203.45613
202.08453
200.97918
199.83598
200.87055
189.40286
189.0759
199.79732
214.65705
212.91791
209.57229
211.09436
206.63809
207.90534
212.61017
213.88389
234.60466
231.88033
223.87347
222.02074
229.66836
227.34788
233.58656
236.2669
214.6709
216.37375
218.31072
219.79997
245.56837
242.4685
238.77792
273.9101
260.33478
245.89446
232.76537
234.71834
258.16348
240.05386
237.92148
254.69636
251.93435
230.68108
228.53232
218.60776
210.26834
203.10814
212.47391
204.38338
213.08041
203.972
197.23162
190.48083
196.38513
204.02544
204.61819
197.33339
204.43504
213.68029
212.82769
223.29594
222.15919
212.25201
203.25848
196.49424
190.04813
190.05908
196.52658
202.97861
195.71241
196.00852
203.45875
212.02165
211.31387
202.94829
196.61065
203.19722
202.68525
195.54581
189.27075
183.76518
187.35578
187.21488
190.70722
191.00077
198.55008
193.83797
193.54035
189.14476
195.2937
189.88327
196.0994
196.03989
202.37013
195.9651
189.78976
189.84443
196.06864
202.19543
195.21842
195.43043
202.55077
210.66632
210.13054
202.19572
210.24166
202.32241
209.2197
200.83332
201.30514
201.83707
202.43161
209.24734
208.3131
219.22977
210.70309
211.56457
220.59829
222.00058
233.74548
235.88462
254.99883
237.72905
224.66189
213.52218
226.08852
227.23111
241.70946
239.70008
256.89696
239.50402
241.41663
260.18353
284.37921
260.02513
257.76646
282.95373
286.42275
322.93619
317.47046
281.1016
277.79053
254.50653
237.71958
236.00581
223.35762
235.8298
252.11124
274.44035
252.3102
275.70465
249.05073
245.9789
226.40068
217.11037
215.66151
224.24901
210.11532
208.79205
198.31686
194.64599
194.18778
197.62858
207.62329
202.73676
198.07542
206.69043
207.4754
218.00551
209.94563
219.87402
210.85454
211.52602
221.1396
220.19354
219.36225
230.12677
218.94122
228.92748
216.89564
225.72226
213.08485
214.32331
203.55314
222.18878
220.25658
236.6336
239.70415
227.628
229.60186
231.67919
249.51526
233.98693
222.11166
220.97008
232.20271
247.41861
232.87846
234.42553
249.77989
270.98016
267.43861
246.74533
267.28088
242.87439
260.5323
234.45661
216.25332
202.9951
192.87167
184.79782
184.85049
186.48316
186.36311
195.12668
195.92892
193.51357
204.16498
208.05939
206.61075
222.4807
224.95407
218.19265
237.50174
240.42701
243.21743
257.19963
253.78919
295.61948
269.39024
273.22704
276.68414
280.12328
248.09015
262.9654
308.90963
303.98823
300.20169
329.51501
270.46965
266.61166
274.18923
237.02104
239.8583
216.52916
216.13572
200.7207
189.33719
178.78605
168.45259
160.00386
154.36745
151.07646
154.2824
164.01802
173.24979
160.72716
173.33826
189.26435
208.43926
214.81875
193.13601
252.26259
349.07085
337.42292
252.19704
202.72055
202.67925
176.07974
163.18532
154.25163
176.00806
192.81385
251.46504
380.43575
718.54096
644.59286
376.83975
625.59048
1069.9352
1227.9004
695.7047
341.39297
330.48966
251.22632
188.9187
163.80893
206.91617
191.16085
257.86014
384.29627
630.50018
1066.7213
1222.128
702.53642
389.38268
747.59286
667.45553
352.67718
368.17181
258.57311
195.23396
164.64286
212.06937
219.05965
216.17459
382.89951
844.45697
1421.7323
1430.8212
807.46504
359.25208
212.11389
173.34518
158.35983
159.53121
157.80789
156.59624
167.97249
165.2799
166.9719
168.0424
168.24646
167.22749
177.72369
179.63136
180.24745
178.1285
174.86352
174.68712
165.72345
163.62181
163.19043
170.98709
171.14261
171.38914
163.64302
158.5111
160.08096
161.55008
168.33999
169.00976
168.23956
167.55923
167.58476
166.95838
167.87336
179.27547
177.54282
177.24275
177.03053
178.42855
178.28861
177.02187
174.79999
167.03901
166.29447
166.26167
165.55602
174.74917
174.68138
171.53493
164.35723
164.54469
165.28291
171.97491
171.7058
174.67645
182.85411
184.63387
186.2917
187.42607
188.14135
188.18907
187.57946
187.38497
187.97506
197.69924
196.84109
197.76145
198.69781
212.82012
211.19209
209.4866
211.01633
230.84176
227.88651
230.80697
234.02316
269.56478
262.30817
250.08547
246.09727
284.15107
290.3386
265.18653
305.3115
271.6989
303.89812
308.93154
313.41467
279.51722
315.65462
319.87873
322.71671
375.19608
372.83462
477.86462
376.85437
380.28133
481.6291
630.25908
644.21116
441.30541
333.24483
352.53035
281.87954
284.39572
357.1381
489.43778
496.6931
829.32791
799.26704
1341.6992
924.47938
611.45148
445.93041
362.37051
311.70249
280.71111
257.6829
240.5928
226.12151
214.53483
213.52968
203.82328
195.47976
188.32662
182.11698
182.26473
185.69545
179.19173
179.19764
185.32088
185.0284
181.94971
188.04211
187.79265
194.61909
195.05127
200.34145
192.11911
192.55218
192.88451
188.43994
195.95747
201.91445
201.01982
207.01703
196.95623
188.5646
181.47013
181.58808
188.99884
192.45112
184.05827
183.89402
191.77286
191.20553
188.15492
181.02803
178.84133
178.96586
184.83529
191.71309
199.73279
205.20334
195.74794
187.82963
181.07832
174.67649
177.16663
167.57074
168.42048
167.81469
167.80971
159.99992
154.36875
148.88958
148.29818
155.21746
155.61381
147.21809
147.9376
149.40337
151.07027
158.29415
159.50986
167.90089
173.05163
179.83171
179.32645
168.17057
167.19034
166.90704
177.90456
177.58996
174.64746
165.71175
157.80777
156.5742
167.93122
165.2643
174.81347
170.98773
163.1844
163.63457
171.15394
171.40822
174.73778
177.46587
179.06612
178.66923
178.6558
178.3503
177.00548
167.55742
168.25605
177.02327
174.82658
180.58707
178.66865
178.89334
178.68478
184.61824
184.49981
184.3663
184.30513
181.63742
176.72948
178.91966
180.77094
186.88446
187.03984
187.26788
180.87302
180.73458
187.49977
190.26853
182.81717
183.31334
183.31164
185.19576
185.89554
186.19362
195.62013
194.85782
197.59772
187.8127
188.17555
198.65044
211.52077
206.95729
202.19646
197.39656
208.0701
215.21053
213.5906
201.49937
200.65518
196.35639
206.12861
212.36189
211.14232
199.8778
190.77554
193.50998
185.11287
186.83928
186.99568
196.73294
194.15659
205.01956
206.12783
220.70582
222.52449
230.31648
227.88237
210.44937
209.13935
207.85764
203.99646
217.4806
219.12152
225.94495
223.94997
229.72352
211.07677
197.89437
196.00025
195.20201
192.90528
184.55253
184.54904
182.91358
189.92197
189.55531
182.52496
182.67898
189.31096
197.26792
193.97037
190.58844
187.16728
193.42288
193.66698
193.9368
187.42339
187.58106
194.25852
199.15095
191.36051
191.05879
198.65285
198.2043
190.82321
194.33303
194.74567
195.21666
204.37446
203.60422
208.83566
198.4441
199.13208
209.98196
223.66771
215.5117
208.36724
201.95861
202.5416
203.15463
212.60164
211.73106
220.47315
209.24523
210.12741
211.08084
223.04898
224.85206
239.30041
237.42735
225.05608
238.71168
254.64175
257.76936
279.15109
255.42726
236.52472
234.54395
219.41211
229.07591
248.95574
252.17698
277.88166
274.56902
253.2915
275.91004
306.7105
312.16748
359.60673
308.08887
270.69186
267.31439
240.4093
252.87963
290.0217
294.94599
350.98092
347.20913
304.78798
355.10147
434.81173
441.58571
560.75277
403.8767
319.45645
314.97794
265.05895
234.27877
214.04988
199.76905
189.0879
189.55137
200.86959
202.17206
190.35704
189.8827
200.97871
199.91448
198.79448
188.19395
187.98697
188.70182
188.95119
188.95719
189.92181
190.38798
196.51513
197.4525
210.71365
232.74882
229.96231
219.82848
192.80705
193.53655
221.88594
272.01634
304.07867
351.90516
506.08437
518.54589
304.42247
270.20147
370.7383
371.50968
292.86488
240.11113
208.53028
187.38433
191.96283
180.89144
180.92665
187.06615
206.94326
195.34518
195.91473
216.7855
251.29879
247.6744
244.62837
287.10557
238.07892
215.669
212.63386
221.37789
231.91139
243.73695
256.82208
268.80581
276.28549
275.81147
241.08576
236.85477
215.27023
217.44796
216.15982
238.26473
235.91278
232.08564
212.57755
214.58541
212.9955
199.00336
198.03153
197.01569
187.23686
186.16304
186.11169
194.58008
192.40812
191.89804
184.11638
184.19472
191.53058
193.43397
185.60177
185.56067
193.95539
204.3106
201.20521
197.83922
207.8173
202.91825
202.29927
197.82805
206.27674
200.63937
201.02042
201.46594
210.17285
210.93289
219.28566
218.16465
207.60324
206.9143
217.14793
209.52152
208.9431
216.25606
228.04836
218.59254
219.4346
220.37415
221.40165
222.53189
223.7434
236.9842
235.35259
250.07092
233.96056
235.67735
221.78048
232.70757
218.05322
216.77594
230.91955
243.91998
225.49635
227.27409
246.50254
271.26873
250.79781
248.36567
269.64886
272.8119
252.37512
272.58782
253.24264
255.61524
277.28689
302.17053
275.67473
278.96723
285.53224
290.03816
382.73416
370.40268
362.61399
465.69527
355.46472
363.40128
481.00951
747.59522
560.96854
571.05098
1175.4203
1033.2213
1449.2054
1629.8713
756.51374
1193.819
737.45123
538.6944
532.42434
789.86272
730.83527
1374.8166
960.19419
1085.7133
1540.4445
2189.1055
1934.2552
1114.3453
1979.5501
2247.4312
2476.2318
2131.8444
2119.3721
1938.7414
1424.4614
1007.1976
528.43896
311.44954
235.51216
198.41575
197.33536
193.14767
194.0124
222.86241
220.63949
232.41241
311.91728
271.79307
274.12278
373.77042
372.33667
543.23218
480.56622
353.36175
282.76291
244.83462
219.42135
203.2948
190.95922
190.39455
189.47777
190.04221
201.73539
200.50731
201.95123
217.97283
215.43256
216.82712
239.61067
236.81466
241.70051
239.04345
236.22612
214.3501
199.65314
189.04662
188.24669
188.52463
199.39403
198.40488
196.32881
187.05174
187.22995
188.12189
188.55096
186.4471
186.08667
195.21197
198.16891
199.318
196.09276
207.68053
212.65263
211.41592
206.74249
221.72155
229.58127
232.26412
223.68701
215.87619
202.64687
192.76136
184.23874
187.13206
187.52044
192.00645
180.85838
180.88439
195.14302
206.99709
208.69502
195.72423
216.14563
240.01828
250.47075
291.46011
285.37063
237.77095
215.02279
242.81082
245.80532
219.12807
199.33859
185.57762
174.72036
167.26699
161.05372
155.53332
149.40527
152.75316
156.40929
158.05433
155.79478
153.84656
154.10649
153.06649
151.00466
151.65937
154.08121
161.85083
158.94237
158.16543
159.43739
161.61316
167.43799
163.99841
163.4762
168.9056
165.346
169.32174
174.86715
185.08094
177.36281
176.77592
175.44426
163.66703
156.55062
175.39411
201.5145
185.98155
186.07484
198.51624
216.73266
198.55731
199.38976
185.57588
176.7615
177.36222
169.32576
168.92093
174.70899
174.8652
185.10542
185.47714
176.98528
165.88976
169.37131
171.61226
167.76993
161.70988
162.48505
160.4013
158.85675
159.64544
164.00576
164.64854
168.07676
168.36384
162.73651
163.52055
161.56597
160.41574
160.82253
164.84524
165.55794
168.77897
174.3579
176.45504
178.63893
180.57198
182.51884
184.1247
185.5953
186.58937
187.20235
187.23963
186.70149
185.73681
185.71245
184.30371
191.76931
192.26791
194.34773
193.72596
195.17438
186.62909
187.13324
195.92602
196.74916
195.94599
207.84939
205.23274
201.9233
200.95667
203.97684
217.73703
212.71346
214.43811
220.08202
224.95077
222.10983
206.36009
207.60168
209.26925
227.6662
224.54102
252.70389
247.09729
237.80997
228.52102
231.44977
241.9716
277.28314
255.75228
250.90262
270.00176
293.80552
303.58497
252.44446
257.55815
264.37845
330.99057
312.07171
319.14375
324.93978
344.64577
349.25277
278.31558
276.42103
280.13328
269.77318
272.58985
328.51698
323.75507
348.29635
344.46107
339.43055
272.32546
262.2324
231.72429
212.08886
213.77627
234.35539
227.39532
209.96887
197.20751
194.41196
185.36529
185.23834
193.73984
204.36897
208.54177
225.17967
218.18778
219.98559
205.56262
200.93497
191.38392
183.40744
184.04458
181.54117
181.69519
189.14903
188.6882
192.02937
201.87921
197.14023
197.63778
208.38369
207.31342
214.1817
212.82587
211.49797
200.08824
190.87829
183.39302
181.09869
181.09477
188.23986
187.8801
184.86646
178.98908
178.8687
179.25316
179.25854
176.6039
176.63981
182.13752
185.40376
185.81301
182.31252
188.47579
193.00346
192.63336
188.38555
195.51282
201.13638
202.09274
196.01129
204.32726
212.1952
220.99476
231.76767
244.18884
258.49335
255.73273
242.00882
269.67744
294.77365
300.13016
273.33046
311.49519
358.83365
420.1639
419.17559
485.7396
802.53951
778.71574
588.69151
593.62585
597.55432
415.24559
319.31525
266.20819
252.56189
249.22133
236.75889
239.42377
266.17601
290.52481
285.74118
313.96702
409.68427
485.41154
501.04083
439.03495
364.61785
310.96102
367.63779
372.73789
477.79245
369.39631
440.8311
499.75019
869.30753
660.26491
678.03844
476.38128
473.24749
358.35454
350.22187
298.94274
353.85016
298.46648
292.58426
262.79103
243.98289
230.54695
245.21427
231.4773
244.93719
231.04737
232.39279
233.83127
247.91182
232.33112
230.79077
245.84618
243.8891
229.39335
241.36327
225.88186
213.26479
214.35985
227.49207
229.18036
241.36222
238.80736
221.97037
220.329
218.83632
212.314
224.43688
234.02062
236.37028
257.09173
260.7232
243.66365
245.9825
266.51943
263.4144
288.8755
293.7324
264.3542
267.88972
298.32689
302.65488
350.13211
300.4661
264.07523
238.0034
235.59882
260.63881
281.84721
247.02337
250.04342
286.2038
342.51403
336.89714
295.8354
344.49007
424.97207
430.79614
567.2372
398.93713
310.91726
261.81385
258.3478
306.13302
325.95336
266.39163
233.46797
230.86249
227.35995
221.93507
215.90272
202.99704
202.08086
214.374
219.94439
205.46432
206.64418
209.62131
208.20595
196.2599
187.13007
187.75553
187.91512
187.9087
178.37382
168.33512
168.33725
169.01424
178.26912
186.50622
186.49194
194.87299
195.50285
196.3507
187.08839
187.03821
195.67126
206.98626
205.62114
203.31727
200.4459
211.57529
206.91727
206.08118
201.78694
197.4943
193.24141
188.96687
184.63726
177.47545
167.61179
161.2911
156.99349
156.89331
154.52238
158.32733
157.99961
158.32722
160.10805
159.35266
155.66434
156.99353
158.80473
162.96344
161.29759
161.93047
159.08879
160.88593
163.30891
162.79202
166.59663
165.78491
169.17139
163.8033
164.68559
169.67122
170.11779
166.92939
167.72017
164.14197
165.94999
165.07845
166.71899
162.74049
156.9958
160.59516
163.84007
162.08479
160.13849
162.02251
165.73691
163.97426
164.58085
165.53883
168.90342
168.02487
171.13068
166.33649
167.32465
171.72078
172.24308
169.32979
166.18008
163.9482
167.257
170.21849
168.94535
167.85991
169.45528
165.67496
170.61092
175.01735
174.52586
168.922
167.93912
167.57628
173.55054
170.65869
173.59285
172.13774
168.85358
162.96439
158.80486
160.88312
159.08877
161.9257
162.78308
164.67506
163.7986
169.16007
165.77542
166.59342
169.65765
170.10197
165.06599
163.30537
164.13688
165.94282
170.63773
167.71789
166.92755
171.49983
171.25294
170.62615
172.39519
172.72013
174.93829
174.61771
178.90164
176.00526
176.32431
179.02504
179.08449
174.91682
172.79276
173.1196
175.2544
179.22993
176.62937
176.32264
180.21717
178.20744
177.49228
179.98377
180.19314
183.69269
183.67528
188.99431
184.65875
184.92364
188.9665
188.9165
183.73053
183.78174
180.41895
185.04723
184.81041
189.56275
185.62665
178.21337
171.256
170.63574
172.40253
172.73096
176.32723
176.01428
178.90125
174.6206
174.95644
179.03503
179.10283
176.32478
172.80604
173.13272
176.63659
179.25172
175.27759
174.94245
176.8962
172.70461
166.37044
160.97959
165.52224
172.31344
175.00826
167.14781
168.02615
175.33213
175.65055
173.10199
177.16834
175.25672
173.16372
171.51461
178.04483
178.79955
180.68344
176.95168
176.93515
173.51636
175.61028
179.49186
179.33665
176.59428
180.37478
180.42957
180.23271
180.19
179.98931
183.65506
183.69593
188.95399
184.91614
184.78149
185.03705
188.92604
183.80838
183.74365
188.92813
194.78726
189.56393
189.71854
185.33186
189.5856
189.73528
194.92724
195.0766
201.92777
195.57514
195.76009
201.70455
201.46451
194.81343
194.74056
188.93876
188.90327
183.83059
179.3136
175.24095
173.15175
173.49464
175.60124
179.48016
176.92607
176.58764
180.36779
178.04549
178.79674
172.13751
173.58753
173.93329
175.97463
175.61899
179.58743
176.94603
177.2729
179.7675
184.11683
180.90464
180.69114
180.61489
183.93525
188.96889
185.1531
184.848
189.53804
185.52246
185.92574
189.66134
185.07459
185.35145
189.06753
189.00992
184.02927
187.12896
182.08407
177.48568
173.53893
167.56772
162.73694
156.9941
160.59358
159.35233
160.13786
162.08279
164.57881
163.97378
165.54051
167.3221
166.33123
171.12395
168.02102
168.90624
171.71549
169.65572
172.38838
173.09143
174.49002
174.3641
173.99065
175.99706
176.38315
180.07816
177.62978
177.26153
179.88829
184.20485
180.88984
178.66557
179.46656
181.2616
177.69034
178.0483
174.88267
176.84437
176.44411
180.22462
180.43339
184.59817
181.51792
185.79175
185.48277
185.52532
181.16696
184.34437
189.19187
189.10775
185.19106
189.72465
185.89237
178.66738
172.39302
173.09214
179.46434
181.2673
177.69303
174.49871
174.36951
173.9953
173.94469
177.2758
179.76539
175.98511
175.62831
179.60375
184.01541
183.94694
180.62761
185.14198
184.84026
188.91519
183.85721
187.04277
181.88876
181.83306
177.20688
179.2281
178.92516
179.03808
176.94222
176.65173
181.62868
181.69501
184.24939
184.25284
178.74779
180.56964
180.81319
186.67843
186.74979
189.05974
182.37932
182.61042
188.93363
188.78563
186.61039
184.24557
181.74876
187.02333
187.05335
187.09226
190.41971
190.29965
197.23898
193.11635
193.00712
192.94903
187.05281
190.14595
184.3006
186.61421
180.9503
180.68962
182.38995
182.66861
188.74799
195.93587
193.15095
193.28412
190.22916
197.04037
196.89162
200.74184
201.02814
201.37266
193.46739
193.68941
196.8231
196.456
205.42812
204.87968
196.18578
198.78247
190.72956
183.77274
177.34199
169.15504
162.29464
164.0858
169.3933
168.28436
169.17672
176.06566
177.97214
170.27082
170.95029
170.06831
169.86662
169.01063
168.31086
177.11207
178.25807
178.44449
178.66775
177.61547
183.80752
182.49623
180.84523
179.13939
179.47295
177.48796
181.9999
184.40244
184.32528
190.12288
190.11823
187.09526
192.87744
188.97972
188.99573
185.06958
185.34336
180.90952
184.1297
189.07088
194.67396
189.86704
189.66461
189.75118
189.5367
189.72263
195.61557
195.39213
195.7619
195.55797
189.57895
195.01285
194.9229
201.671
201.88727
209.64757
201.737
201.66239
209.3464
209.75295
218.63757
218.03958
209.29905
208.95536
201.34774
195.39504
195.61558
189.75625
201.34551
208.75082
201.36944
208.73488
201.3468
194.74881
194.67033
194.67656
201.14926
195.55215
195.26138
201.21506
208.53446
201.10948
195.25415
195.55002
189.77357
194.66948
194.68961
201.18965
201.14736
201.06514
194.66028
194.67486
189.88342
195.56803
195.28949
200.99374
195.26931
195.56627
201.06029
201.08492
194.67183
199.44042
192.88007
187.13953
182.08813
177.49709
177.81716
182.22358
184.56823
179.77359
179.4226
184.47015
190.13476
190.1673
187.20862
192.88829
196.61871
196.6601
196.70831
196.78528
192.92233
199.59616
199.72646
199.87426
200.0689
200.32547
208.44979
208.05813
214.80034
205.34021
205.7835
215.49146
226.93039
217.87278
217.26111
227.91023
228.81972
229.86225
242.10079
257.46987
239.31516
253.65104
279.10814
284.00068
260.41511
283.36096
261.41365
264.09157
246.90412
248.90089
251.03529
271.1908
274.2504
298.34903
294.52786
269.71566
295.28449
299.25614
303.21839
306.76623
341.50332
307.43943
344.72826
339.47832
308.16741
356.79661
398.68251
407.07921
456.74794
385.75817
380.15384
336.21884
389.38999
345.38713
350.94847
397.69181
451.26891
442.65643
520.58828
447.90774
440.20694
392.66027
351.88288
304.07218
299.97602
346.58898
386.18857
329.49355
334.57511
373.90117
331.31124
326.38035
377.15157
335.18261
340.4478
383.53992
435.13426
427.22621
367.60396
432.1512
501.57939
511.59741
651.55241
562.82912
501.61666
439.03487
443.57388
614.13646
736.62998
507.68264
512.32156
739.68626
1188.0243
1256.7216
975.26167
1488.4388
2143.7359
1914.9101
2209.8061
1326
835.01702
577.54212
571.43125
829.88279
948.96321
661.85765
672.47211
533.4489
664.31813
562.80268
491.31933
422.0758
418.33307
486.04648
687.73983
558.14962
559.63493
692.45543
800.97448
795.62023
556.76362
653.80282
924.12224
934.08941
1398.0174
1266.7149
1101.9909
818.7248
851.84489
564.40502
402.81749
454.64001
334.34966
273.36703
270.07153
330.67433
454.00514
451.52248
393.82001
567.98848
772.25674
751.18406
728.60588
712.4951
451.57544
339.25315
340.29836
335.58613
273.89238
238.52025
216.29314
201.04864
202.26376
201.01267
189.62801
189.16778
199.9183
198.91131
199.99148
199.0495
188.74961
188.05109
188.29105
187.07467
177.21827
167.58356
168.44357
166.95244
165.55507
158.5138
160.08443
161.55593
169.01778
178.27982
177.03968
168.26086
167.57024
177.04887
174.67798
166.30325
166.27369
174.70175
171.55623
164.3701
163.66256
161.71829
156.41132
152.75282
158.05509
162.73904
164.55874
165.29417
167.05523
174.83257
172.00416
171.73204
168.37903
168.10344
162.50508
160.40396
158.86047
159.65166
159.44748
161.63208
155.54249
154.07909
161.87242
161.07059
167.29407
167.46606
164.02053
158.19128
158.96206
163.50663
168.97979
174.80461
175.61808
185.82528
185.29176
174.93983
169.38299
165.43375
176.97574
177.53472
186.49051
199.09359
200.02484
202.68542
220.85853
218.22557
199.58499
200.62467
186.51686
177.11984
175.96552
163.79485
156.57578
151.00679
151.66179
153.06778
154.10517
153.84621
155.79433
160.41651
160.82236
161.56921
163.5287
168.7908
165.5619
164.85907
164.66886
164.02074
167.80124
174.20225
176.64562
179.28038
181.68284
184.17885
186.31618
188.29201
187.93418
197.8309
198.89174
195.86934
195.07791
186.00191
185.29949
185.19828
186.94153
196.16174
198.04514
211.36726
213.12185
214.72196
236.18027
233.71089
230.38173
232.71718
212.89433
214.37708
215.57327
217.59506
241.37152
237.45914
234.93262
228.68407
210.87686
211.98012
231.16652
223.27768
207.39886
206.54449
221.475
219.83088
226.74671
209.56068
196.9709
194.33774
193.7134
204.34937
208.26447
224.72251
218.20009
216.55126
222.67048
228.00156
231.13658
211.52972
211.43815
209.87604
197.22897
197.23079
187.78414
187.18462
187.31353
197.12723
198.11899
196.35835
195.57335
196.39897
187.10234
187.05399
195.7034
194.94915
186.53949
186.57599
185.60731
186.19788
186.23999
195.38367
194.72909