/*--------------------------------*- C++ -*----------------------------------*\
  =========                 |
  \\      /  F ield         | OpenFOAM: The Open Source CFD Toolbox
   \\    /   O peration     | Website:  https://openfoam.org
    \\  /    A nd           | Version:  7
     \\/     M anipulation  |
\*---------------------------------------------------------------------------*/
FoamFile
{
    version     2.0;
    format      ascii;
    class       volScalarField;
    location    "300";
    object      p;
}
// * * * * * * * * * * * * * * * * * * * * * * * * * * * * * * * * * * * * * //

dimensions      [1 -1 -2 0 0 0 0];

internalField   nonuniform List<scalar> 
25278
(
101315.68
101314.8
101316.06
101315.95
101319.08
101314.38
101314.76
101315.6
101315.09
101310.67
101312.29
101313.76
101314.54
101316.27
101323.91
101316.03
101314.85
101321.57
101325.1
101318.9
101314.33
101314.63
101314.93
101312.37
101308.74
101312.16
101314.73
101313.1
101318.31
101312
101309.99
101315.72
101310.7
101313.88
101307.97
101314.2
101309.85
101306.43
101310.23
101304.63
101307.77
101303.12
101303.56
101296.96
101301.72
101304.63
101310.59
101308.38
101303.29
101310
101309.8
101318.85
101314.09
101312.42
101314.1
101307.63
101305.87
101311.83
101303.75
101307.85
101302.44
101301.99
101302.1
101307.14
101316.16
101315.13
101306.55
101302.03
101306.38
101308.36
101322.77
101312.3
101315.74
101309.84
101315.86
101307.19
101307.91
101311.88
101314.34
101318.92
101322.42
101323.72
101321.4
101325.09
101318.69
101322.98
101326.48
101331.22
101330.19
101329.38
101323.75
101323.78
101330.4
101333.39
101334.42
101323.68
101329.81
101328.49
101321.38
101322.06
101329.9
101338.77
101335.45
101321.93
101321.25
101330.13
101323.46
101332.13
101331.1
101338.52
101334.88
101326.35
101344.65
101358.45
101337.55
101334.3
101362.4
101328.69
101337.6
101336.9
101324.14
101318.28
101318.81
101329.89
101333.07
101329.7
101338.02
101334.72
101325.93
101322.76
101322.24
101318.51
101320.71
101323.32
101329.89
101330.74
101322.25
101325.82
101343.89
101330.59
101335.83
101357.42
101361.22
101327.46
101320.01
101329.33
101328.85
101322.4
101333.93
101322.41
101323.25
101329.55
101323.15
101328.44
101320.52
101320.58
101320.18
101334.44
101332.99
101310.11
101334.65
101341.96
101312.78
101334.44
101321.47
101330.46
101338.09
101328.53
101359.56
101357.29
101337.91
101328.02
101343.13
101341.81
101427.07
101383.55
101343.18
101338.02
101385.58
101438.17
101340.05
101340.78
101324.48
101335.47
101338.17
101329.29
101320.61
101319.64
101331.38
101365.56
101360.23
101337.94
101324.51
101329.43
101328.71
101326.06
101348.06
101313.17
101453.62
101418.5
101310.83
101344.02
101325.43
101317.09
101318.95
101318.03
101313.82
101318.18
101315.21
101309.28
101314.08
101310.53
101307.62
101302.93
101309.82
101305.81
101309.66
101304.48
101303.32
101296.5
101297.28
101301.68
101307.32
101310.19
101306.98
101301.32
101297.77
101303.53
101303.77
101304.54
101303.38
101296.11
101292.92
101299.43
101300.98
101302.15
101302.59
101307.48
101313.74
101318.51
101309.52
101313.78
101312.22
101307.72
101302.23
101307.42
101304.94
101310.87
101303.52
101301.74
101301.57
101306.71
101308.73
101317.99
101313.7
101315.5
101308.03
101305.67
101313.81
101305.34
101301.36
101291.78
101292.63
101293.28
101294.99
101289.73
101299.24
101296.29
101299.59
101301.22
101300.82
101298.91
101301.2
101293.2
101294.36
101296.82
101300.17
101296.19
101291.78
101290.31
101290.62
101286.22
101294.79
101291.99
101289.85
101282.91
101286.38
101281.61
101280.41
101285.87
101288.07
101293.04
101301.5
101307.22
101307.55
101301.86
101304.67
101303.53
101300.26
101293.43
101296.48
101297.6
101298.93
101297.77
101294.45
101294.28
101301.54
101303.26
101301.38
101306.04
101299.04
101306.6
101299.18
101299.61
101297.67
101301.41
101299.09
101306.04
101315.68
101318.87
101306.64
101299.54
101309.8
101301.36
101299.81
101297.94
101311.46
101318.26
101324.26
101311.06
101295.28
101295.82
101288.84
101281.11
101296.99
101284.88
101297.95
101291.12
101289.98
101291.01
101293.44
101294.11
101289.1
101290.72
101287.69
101294.77
101290.48
101285.43
101288.25
101284.62
101285.21
101295.39
101288.5
101287.21
101284.89
101283.32
101278.73
101286.32
101276.26
101276.41
101283.12
101284.71
101281.44
101286.42
101280.53
101289.15
101291
101290.5
101298.84
101294.34
101285.45
101288.61
101284.67
101294.45
101301.66
101303.28
101291.17
101290
101291.02
101292.95
101293.64
101289.23
101291
101298.09
101295.07
101283.37
101285.11
101282.03
101285.08
101287.95
101282.04
101284.85
101286.67
101287.79
101295.48
101285.11
101283.22
101278.88
101286.59
101276.44
101276.7
101276.59
101273.65
101268.38
101268.45
101277.89
101283.62
101290.54
101281.83
101291.02
101283.38
101278.93
101279.33
101278.87
101285.33
101278.2
101285.92
101288.68
101284.72
101277.44
101277.36
101278.63
101272.18
101278.61
101274.5
101280.78
101278.87
101274.31
101273
101266.74
101273.71
101266.27
101275.85
101266.15
101264.8
101271.12
101266.54
101273.5
101276.91
101285.19
101275.34
101276.52
101280.7
101290.07
101290.19
101297.08
101300.59
101301.01
101315.32
101317.06
101307.71
101299.15
101298.84
101300.09
101312.21
101298.09
101318.96
101326.36
101320.85
101315.82
101294.06
101297.56
101297.37
101292.44
101289.88
101328.91
101350.72
101311.24
101321.9
101326.33
101320.14
101300.94
101301.11
101301.03
101301.22
101305.22
101344.25
101347.8
101294.16
101289.97
101300.17
101302.85
101302.81
101297.93
101291.96
101296.24
101285.32
101290.52
101286.31
101291.09
101287.06
101297.16
101289.51
101275.91
101281.29
101274.61
101277.61
101281.07
101273.08
101281.76
101279.81
101281.35
101277.7
101267.26
101273.31
101276.23
101281.85
101280.22
101283.33
101290.02
101290.22
101299.65
101302.45
101300.69
101297.49
101287.87
101293.84
101295.39
101300.65
101300.87
101299.84
101297.78
101298.57
101307.41
101296.8
101310.59
101299.76
101300.9
101300.75
101320.59
101303.78
101299.38
101297.74
101300.02
101295.4
101296.55
101326.68
101320.29
101317.53
101286.55
101315.85
101292.67
101289.21
101295
101327.24
101352.04
101341.74
101287.27
101280.81
101297.8
101269.4
101296.13
101276.77
101294.47
101285.99
101301.05
101293.04
101301.36
101302.38
101300.8
101302.21
101304.49
101298.02
101300.49
101297.94
101295.32
101291.05
101292.29
101296.76
101291.57
101287.44
101295.68
101293.77
101291.31
101293.79
101283.84
101284.01
101287.19
101281.52
101281.16
101285.78
101288.36
101290.85
101281.87
101291.03
101286.37
101279.24
101283.69
101279.08
101279.57
101274.32
101278.59
101277.96
101283.71
101274.38
101277.84
101285.35
101288.91
101287.36
101279.29
101277.97
101279.45
101272.85
101278.69
101276.14
101266.3
101273.7
101280.62
101273.14
101266.66
101268.2
101268.28
101268.4
101272.19
101271.7
101261.19
101269.58
101258.51
101261.3
101252.78
101255.39
101264.79
101267.15
101275.6
101277.11
101273.93
101278.9
101271.04
101277.66
101271.39
101279.57
101264.08
101268.5
101252.65
101260.27
101265.32
101272.56
101269.63
101273.77
101281.3
101285.75
101288.84
101296.91
101290.86
101293.77
101286.47
101292.18
101293.04
101289.55
101283.71
101288.15
101280.77
101284.22
101284.5
101289.97
101280.58
101278.15
101275.5
101286.4
101287.51
101294.43
101300.07
101294.12
101289.28
101285.84
101286.12
101289.48
101283.49
101288.19
101291.97
101281.51
101280.46
101276.86
101276.94
101280.44
101277.33
101286.25
101290.68
101276.91
101274.41
101284.87
101268.08
101281.81
101271.84
101270.52
101255.54
101264.75
101269.84
101276.87
101272.14
101275.64
101268.96
101264.95
101260.31
101268.8
101275.17
101279.34
101277.19
101282.66
101281.22
101273.47
101265.97
101272.54
101264.01
101267.3
101261.26
101270.13
101289.51
101282.15
101272.05
101280.1
101294.32
101288.2
101301.49
101293.47
101301.85
101297.42
101296.65
101285.24
101286.05
101281.35
101290.58
101292.26
101291.57
101289.76
101280
101279.2
101280.77
101267.14
101267.98
101271.84
101273.29
101277.13
101285.34
101281.47
101276.49
101273.69
101276.54
101275.57
101272.31
101270.72
101274.03
101275.41
101283.95
101282.45
101271.99
101267.88
101279.55
101277.44
101264.51
101263.5
101266.79
101268.57
101280.94
101277.45
101272.79
101276.86
101265.55
101267.96
101270.59
101262.89
101266.82
101270.76
101268.94
101264.42
101254.99
101260.89
101263.36
101258.43
101252.96
101248.44
101259.67
101255.34
101259.25
101248.41
101257.02
101252.18
101262.83
101271.18
101283.22
101285.95
101292.53
101289.25
101297.51
101283.69
101284.74
101284.48
101276.28
101275.13
101282.9
101279.58
101270.13
101268.69
101280.77
101284.81
101291.02
101290
101299.97
101284.71
101284.11
101283.94
101274.55
101274.29
101283.91
101279.59
101268.45
101258.8
101259.11
101261.37
101270.11
101271.46
101278.79
101278.76
101291.53
101272.21
101274.99
101274.09
101261.91
101260.41
101250.93
101247.16
101258.77
101269.29
101277.64
101277.81
101293.75
101274.26
101273.62
101273.13
101263.36
101266.28
101265.44
101269.23
101282.74
101259.75
101276.54
101264.59
101264.64
101245.96
101257.49
101245.84
101250.05
101256.49
101261.89
101253.17
101260.24
101252.05
101261.83
101265.17
101278.03
101267.79
101260.79
101265.85
101267.56
101269.64
101260.7
101252.5
101243.8
101233.26
101243.69
101254.04
101255.87
101268.83
101269.83
101260.15
101250.05
101258.79
101261.69
101253.24
101244.1
101239.09
101250.79
101259.71
101249.65
101247.01
101256.53
101265.02
101271.53
101266.79
101268.23
101263.69
101262.34
101252.8
101258.9
101260.47
101266.62
101258.01
101267.45
101262.59
101251
101246.47
101251.45
101261.44
101267.5
101262.97
101249.12
101257.68
101256.47
101247.13
101236.17
101238.1
101249.59
101238.2
101249.2
101239.41
101250.71
101248.99
101251.4
101255.22
101248.69
101243.67
101230.23
101240.13
101244.92
101236.78
101246.8
101238.23
101250.73
101241.93
101248.49
101255.64
101261.43
101265.73
101285.4
101276.4
101262.49
101258.51
101261
101274.98
101255.46
101267.18
101283.86
101255.4
101254.36
101271.85
101241.21
101248.59
101249.14
101228.83
101237.68
101246.5
101232.96
101243.51
101235.26
101223.03
101207.52
101223.47
101217.48
101233.39
101219.37
101235.08
101241.03
101234.59
101226.86
101242.77
101239.46
101252.58
101257.32
101258.55
101253.67
101240.04
101247.05
101254.03
101242.55
101241.06
101226.7
101237.32
101223.68
101236.05
101238.74
101226.6
101222.79
101224.82
101209.61
101226.3
101212.29
101228.28
101215.7
101233.4
101231.72
101245.95
101222.65
101223.61
101202.1
101202.4
101213.96
101217.89
101226.36
101208.3
101223.04
101233.7
101226.91
101214.1
101195.48
101211.57
101220.48
101207.27
101187.42
101171.99
101196.61
101184.23
101208.53
101188.34
101213.9
101235.1
101250.33
101262.04
101276.86
101274.01
101270.79
101273.62
101260.05
101263.52
101265.09
101255.21
101253.04
101247.41
101232
101240.07
101242.17
101224.8
101238.19
101254.25
101252.73
101236.9
101221.49
101221.87
101240.43
101259.05
101274.87
101294.84
101289.19
101259.31
101260.67
101238.67
101232.99
101249.71
101229.96
101229.81
101247.13
101258.53
101269
101269.59
101274.7
101283.9
101285.58
101296.71
101302.56
101308.49
101314.46
101321.62
101325.41
101328.9
101328.25
101330.74
101329.46
101339.82
101331
101320.46
101331.01
101364.31
101360.23
101334.78
101339.53
101336.46
101323.04
101321.25
101321.61
101321.27
101321.04
101336.7
101309.87
101350.14
101348.08
101325.15
101335.77
101386.03
101433.66
101331.25
101363.89
101359.22
101339.48
101329.55
101325.31
101335.76
101329.47
101334.4
101324.18
101333.13
101388.22
101442.36
101328.01
101311.72
101332.38
101336.31
101358.62
101362.85
101330.76
101319.91
101323.78
101337.13
101327.45
101323.21
101340.03
101302.4
101473.34
101443.97
101327.7
101351.11
101328.45
101315.24
101319.19
101309.95
101310.18
101318.97
101312.29
101311.93
101316.46
101315.36
101306.68
101307.38
101302.47
101302.53
101306.84
101308.6
101304.07
101302.47
101306.11
101307.88
101314.29
101308.18
101302.92
101296.19
101302.89
101303.65
101302.47
101300.95
101289.86
101291.67
101292.58
101291.02
101297.72
101302.17
101301.42
101293.33
101293.99
101286.72
101282.12
101280.36
101279.53
101281.49
101284.7
101294.18
101291.83
101297.84
101301.07
101294.57
101288.76
101291.15
101300.02
101294.35
101296.05
101288.25
101288.15
101284.97
101274.08
101275.01
101271.6
101272.22
101270.73
101270.62
101271.6
101273.68
101272.64
101257
101257.53
101261.55
101261.14
101249.13
101249.78
101242.98
101242.08
101223.43
101224.14
101234.52
101234.09
101210.31
101211.49
101222.42
101209.89
101187.62
101202.95
101203.49
101172.94
101199.5
101177.83
101200.84
101222.08
101236.53
101228.01
101246.82
101292.97
101279.48
101248.3
101238.27
101237.58
101264.65
101231.68
101253.69
101226.67
101241.18
101255.99
101256.37
101263.84
101294.08
101262.52
101287.3
101239.87
101223.06
101227.83
101282.48
101332.58
101271.64
101308.94
101267.05
101286.67
101272.72
101286.28
101274.96
101285.92
101282.43
101272.9
101277.97
101282.01
101286.32
101289.06
101292.42
101286.92
101293.25
101290.41
101288.38
101280.98
101283.54
101280.7
101276.11
101269.65
101274.48
101270.88
101277.5
101284.38
101290.13
101293.22
101286.89
101278.74
101281.37
101278.45
101282.69
101286.59
101294.74
101299.95
101290.05
101284.27
101293.38
101288.77
101286.31
101277.64
101279.81
101287.76
101283.69
101283.78
101278.27
101272.74
101265.93
101261.93
101269.92
101275.89
101286.61
101287.2
101285.07
101296.74
101295.09
101299.83
101300.04
101300.52
101307.04
101313.99
101315.55
101315.32
101314.54
101315.65
101313.99
101313.67
101313.41
101317.82
101308.55
101314.09
101312.41
101305.52
101300.55
101305.46
101305.57
101314.46
101306.14
101300.05
101299.61
101304.1
101308.54
101317.65
101310.46
101310.48
101301.71
101305.27
101312.66
101305.98
101299.76
101292.18
101290.97
101291.02
101291.18
101283.03
101283.78
101277.81
101279.82
101289.56
101290.73
101278.37
101282.14
101271.51
101271.95
101280.24
101275.71
101273.63
101271.99
101270
101270.83
101274.52
101283.32
101280.53
101278.58
101266.57
101266.08
101268.41
101280.75
101277.63
101270.77
101268.08
101271.9
101280.42
101282.03
101286.36
101293.08
101301.34
101289.04
101285.15
101285.29
101288.6
101296.26
101284.29
101292.23
101294.74
101289.15
101292.34
101283.64
101274.58
101278.59
101281.73
101273.77
101276.23
101268.89
101265.93
101258.88
101267.27
101273.84
101271.87
101283.68
101278.62
101282.05
101275.61
101277
101273.3
101280.64
101276.51
101282.54
101275.12
101277.44
101280.54
101271.89
101263.39
101264.93
101255.1
101264.64
101263.07
101253.53
101250.54
101261.7
101269.12
101270.56
101263.65
101265.52
101274.37
101276.75
101275.38
101265.32
101262.59
101266.28
101274.91
101262.88
101252.53
101257.59
101262.76
101267.56
101259.94
101258.82
101261.2
101269.03
101271.09
101263.91
101259.27
101267.26
101264.56
101255.53
101252.77
101262
101257.19
101260.24
101263.85
101254.43
101249.49
101244.12
101256.11
101260.41
101250.15
101238.92
101243.93
101250.29
101256.18
101262.95
101270.61
101262.48
101254.27
101248.52
101258.13
101266.32
101275.88
101272.05
101270.08
101278.58
101264.36
101266.88
101261.77
101260.07
101257.3
101269.1
101285.5
101278.57
101267.27
101272.62
101272.19
101267.83
101263.93
101276.34
101258.83
101258.99
101252.49
101252.86
101246.28
101269.32
101295.63
101278.76
101263.97
101269.81
101270.98
101265.98
101265.09
101285.55
101256.21
101253.98
101244.92
101246.64
101240.25
101261.51
101301.13
101275.13
101262.44
101268.91
101275.75
101279.61
101284.33
101291.46
101300.76
101286.75
101284.67
101298.19
101288.87
101284.34
101274.3
101275.01
101285.08
101281.07
101278.1
101282.56
101283.4
101289.65
101299.2
101299.73
101319.89
101323.25
101304.79
101299.04
101297.58
101298.8
101320.22
101307.46
101347.38
101343.42
101341.33
101291.35
101281.46
101298.57
101297.55
101292.23
101321.23
101283.12
101316.93
101294.54
101311.03
101315.44
101313.57
101297.94
101297.3
101295.04
101295.24
101303.83
101324.14
101319.3
101310.66
101288.38
101286.14
101292.39
101292.71
101281.61
101285.71
101281.42
101291.75
101289.27
101295.54
101296.12
101296.95
101276.72
101279.71
101294.81
101294.1
101279.6
101276.36
101261.43
101261.95
101271.44
101270.81
101261.03
101268.44
101260.73
101261.69
101271.76
101269.72
101271.89
101259.75
101262.03
101258.82
101266.69
101274.05
101258.73
101255.56
101270.07
101261.96
101256.03
101244.09
101247.72
101252.51
101239.76
101246.12
101246.22
101253.34
101242.32
101250.43
101249.26
101252.13
101240.97
101245.97
101238.47
101231.67
101245
101241.69
101227.38
101237.7
101239.31
101228.14
101212.66
101226.35
101224.32
101228.04
101234.98
101244.77
101256.77
101247.12
101233.67
101224.69
101237.58
101250.65
101257.26
101253.57
101263.74
101252.87
101241.29
101236.79
101249.38
101260.7
101249.46
101241.66
101245.83
101228.12
101211.51
101232.32
101239.35
101231.44
101239.99
101254.07
101250.1
101248.03
101251.13
101274.86
101291.49
101353.43
101281.46
101328.63
101287.47
101280.1
101288.42
101332.04
101264.66
101367.78
101438.75
101301.98
101299.87
101375.61
101245.74
101276.68
101283.13
101383.38
101298.54
101304.34
101433.81
101311.34
101362.38
101252.95
101386.58
101312.01
101287.36
101442.01
101502.48
101657.78
101467.53
101427.49
101445.13
101196.35
101222.78
101507.04
101262.73
101389.29
101296.02
101345.65
101305.66
101321.6
101301.71
101301.43
101323
101310.27
101300.29
101301.46
101302.49
101300.45
101351.23
101324.06
101294.47
101291.66
101291.56
101264.51
101295.39
101274.9
101294.23
101284.99
101299.92
101290.01
101291.48
101301.53
101286.48
101284.3
101284.59
101278.49
101278.19
101294.89
101277.47
101273.78
101274.75
101259.58
101248.51
101259.58
101268.97
101279.61
101281.29
101285.3
101275.06
101269.26
101271.25
101280.18
101283.39
101289.7
101297.6
101302.06
101293.16
101285.25
101285.51
101284.25
101289.06
101294.94
101291.72
101279.78
101279.81
101275.27
101276.3
101273.08
101281.2
101273.66
101288.98
101284.58
101294.78
101300.45
101312.38
101316.6
101315.89
101301.45
101299.11
101298.49
101297.35
101307.54
101326.3
101317.71
101318.16
101287.6
101290.61
101296.27
101297.07
101293.09
101314.81
101295.85
101311.83
101300.01
101310.45
101305.21
101310.7
101310.28
101314.74
101310.67
101305.06
101304.77
101307.28
101308.75
101307.77
101312.11
101313.19
101318.39
101315.99
101311.12
101314.35
101308.18
101309.98
101306.83
101304.08
101303.69
101308.21
101316.12
101307.44
101306.39
101302.08
101300.29
101299.61
101307
101319.55
101318.02
101313.92
101318.69
101324.95
101318.54
101301.82
101298.46
101296.57
101298.45
101311.34
101299.55
101307.23
101299.65
101306.2
101315.85
101309.7
101301.52
101300.12
101286.26
101291.44
101298.25
101299.56
101303.67
101297.79
101302.29
101300.71
101303.75
101302.21
101305.01
101298.38
101297.13
101294.29
101291.91
101295.93
101298.34
101300.68
101301.62
101298.44
101293.02
101297.13
101292.26
101280.61
101278.31
101274.77
101273.15
101269.41
101268.34
101265.18
101264.52
101263.25
101262.99
101263.8
101264.12
101273.3
101275.43
101260.7
101259.79
101257.43
101258.05
101255.64
101272.37
101271.73
101255.06
101254.39
101254.84
101239.24
101243.82
101247.34
101248.49
101244.37
101226.95
101232.54
101231.63
101227.55
101219.37
101221.03
101240.53
101239.93
101238.7
101220.22
101222.55
101192.8
101187.98
101202.9
101212
101209.5
101203.55
101181.35
101182.53
101185.7
101177.71
101156.46
101143.2
101183.18
101192.67
101189.88
101152.99
101156.35
101184.31
101209.76
101210.39
101232.17
101249.25
101251.21
101265.82
101264.42
101296.87
101270.54
101257.49
101259.73
101235.69
101214.73
101232.3
101231.96
101248.44
101259.91
101269.91
101259.71
101262.09
101271.21
101276.06
101277.3
101286.68
101283.98
101272.31
101264.23
101262.85
101253.19
101254.2
101263.52
101272.6
101273.87
101278.4
101283.65
101290.13
101295.07
101300.67
101290.41
101287.06
101286.77
101281.63
101282.64
101292.77
101283.24
101278.19
101278.17
101265.82
101259.22
101267.58
101274.78
101282.25
101287.18
101288.35
101280.51
101276.75
101279.4
101285.65
101285.47
101291.9
101294.79
101301.23
101297.47
101289.79
101289.08
101287.69
101293.03
101293.84
101290.5
101284.81
101286.76
101282.42
101281.56
101278.87
101287.15
101291.44
101286.02
101290.37
101283.94
101295.59
101289.59
101268.2
101267.09
101261.1
101263.34
101261.05
101276.3
101294.07
101281.14
101299.75
101243.75
101246.36
101233.01
101234.75
101255.29
101229.84
101191.85
101220.47
101235.27
101251.09
101255.01
101239.99
101240.78
101256.21
101243.37
101242.21
101226.36
101213.34
101185.59
101185.95
101176.51
101178.7
101199.48
101199.38
101173.74
101208.12
101204.94
101226.09
101216.35
101212.43
101180.55
101186.71
101139.08
101174.93
101141.14
101173.75
101150.53
101148.11
101100.28
101158.4
101145.43
101174.89
101191.65
101209.67
101188.79
101207
101187.49
101207.37
101212.22
101221.19
101209.08
101225.55
101216.53
101197.33
101189.82
101211.23
101195.03
101215.12
101233.1
101237.15
101220.62
101229.5
101222.83
101211.8
101230.67
101225.2
101224.25
101233.32
101215.26
101201.64
101203.86
101181.38
101191.97
101201.96
101213.61
101192.01
101176.6
101163.3
101181.84
101206.15
101223.15
101204.76
101226.5
101216.9
101236.81
101246.1
101259.11
101244.19
101228.32
101226.78
101243.15
101258.06
101244.43
101235.7
101210.66
101210.94
101184.31
101182.14
101214.01
101201.97
101230.02
101241.05
101256.64
101239
101218.71
101218.84
101239.4
101249.99
101236.98
101238.21
101242.53
101245.16
101257.29
101251.99
101237.66
101234.01
101249.07
101255.05
101252.66
101245.78
101257.21
101273.28
101270.33
101269.02
101269.76
101276.96
101287.78
101287.73
101289.05
101275.9
101262.8
101270.12
101252.3
101253.08
101251.74
101259.97
101267.46
101250.63
101236.24
101238.46
101242.8
101247.25
101231.1
101239.09
101241.63
101248.8
101255.63
101261.63
101267.4
101269.08
101280.81
101295.14
101301.41
101305.34
101310.02
101312.08
101313.95
101314.7
101314.07
101313.14
101313.17
101310.2
101304.93
101309.64
101308.13
101301.09
101295.22
101302.98
101308.91
101300.11
101301.25
101301.79
101293.62
101292.33
101293.4
101299.84
101296.74
101301.69
101302.34
101309.57
101306.13
101306.58
101299.93
101297.39
101307.35
101307.89
101312.55
101310.36
101311.22
101310.57
101313.18
101314.55
101311.64
101307.01
101310.45
101314.76
101311.43
101311.16
101308.33
101311.96
101314.38
101316.7
101316.73
101312.48
101314.23
101313.3
101316.84
101314.77
101314.12
101313.34
101313.93
101314.08
101317.39
101314.81
101310.72
101306.72
101304.53
101305.98
101306.93
101296.26
101305.22
101303.66
101308.4
101309.91
101309.76
101304.11
101295.84
101301.78
101301.19
101294.76
101293.57
101294.5
101302.51
101298.09
101303.07
101301.41
101300.92
101306.67
101307.74
101308.14
101310.19
101303.32
101298.01
101296.06
101288.35
101279.89
101289.72
101291.16
101280.62
101279.98
101279.96
101290.19
101283.83
101286.54
101286.75
101283.94
101292.99
101297.01
101291.34
101296.86
101286.82
101279.52
101294.28
101281.13
101273.42
101281.32
101278.01
101273.75
101268.25
101269.61
101283.17
101273.31
101277.83
101281.48
101287.06
101287.6
101292.88
101279.55
101269.8
101284.12
101294
101295.58
101287.68
101279.42
101289.26
101289.32
101279.07
101278.87
101279.05
101289.4
101282.54
101285.03
101285.6
101283.14
101292.3
101295.82
101289.72
101295.13
101284.85
101280.28
101293.57
101297.16
101300.34
101290.76
101288.41
101284.59
101287.8
101295.76
101290.38
101297.81
101299.7
101287.47
101292.39
101288.34
101297.13
101296.9
101308.09
101296.47
101302.7
101302.93
101297.01
101301.59
101298.14
101292.99
101293.67
101286.48
101287.02
101278.69
101280.98
101273.04
101272.73
101276.78
101272.21
101282.62
101278.62
101292.13
101282.93
101285.42
101279.98
101276.43
101270.8
101269.16
101271.66
101274.09
101261.47
101271.81
101266.25
101260.56
101252.39
101256.15
101272.65
101259.87
101267.03
101272.12
101279.77
101284.49
101289.99
101291.42
101294.71
101294.46
101289.53
101297.79
101303.35
101299.8
101303.92
101295.17
101287.71
101297.41
101308.41
101305.66
101297.49
101303.07
101309.22
101303.14
101303.48
101304.14
101310.24
101307.7
101306.76
101303.44
101297.81
101295.39
101297.3
101296.79
101302.61
101291.74
101282.28
101292.99
101303.81
101295.88
101303.93
101311.15
101307.8
101302.22
101301.87
101301.07
101302.68
101298.56
101307.78
101305.93
101308.57
101309.05
101313.15
101313.45
101310.92
101311.97
101307.81
101311.94
101310.89
101312.71
101309.52
101312.2
101312.24
101315.14
101315.15
101310.64
101309.09
101312.87
101310.59
101307.62
101304.63
101310.4
101313.52
101313.67
101314.76
101311.59
101310.71
101310.45
101306.68
101313.02
101317.02
101313.24
101316.92
101317.71
101311.26
101316.32
101315.76
101315.93
101317.62
101318.32
101314.41
101320.38
101320.27
101316.85
101309.75
101313.82
101315.71
101312.03
101313.92
101307.63
101311.33
101312.57
101308.34
101312.62
101316.83
101312.24
101315.95
101309.63
101306.92
101303.41
101302.28
101309.37
101306.25
101307.76
101301.26
101301.86
101300.21
101295.62
101294.75
101301.87
101290.48
101288.31
101289.67
101287.01
101290.69
101286.7
101289.79
101291.72
101279.27
101284.68
101285.02
101275.85
101275.04
101278.75
101275.46
101271.66
101272.72
101270.13
101280.73
101271.43
101267.55
101263.85
101266.23
101279.39
101268.01
101272.34
101275.38
101278.87
101281.61
101275.94
101272.57
101268.15
101263.91
101268.52
101261.01
101266.84
101271.75
101279.04
101282.15
101279.47
101284.34
101281.24
101286.68
101275.2
101273.37
101287.69
101278.74
101272.57
101275.86
101268.54
101272.75
101267.05
101274.91
101270.36
101261.69
101254.68
101263.72
101258.85
101253.83
101259.12
101248.06
101255.99
101264.55
101259.94
101268.77
101270.17
101287.43
101293.66
101298.21
101306.78
101294.23
101296.12
101304.81
101305.13
101304.54
101303.22
101303.29
101293.35
101292.66
101284.09
101285.94
101280.97
101278.35
101285.23
101294.8
101296.17
101280.68
101284.54
101284.09
101288.69
101299.75
101296.22
101296.28
101295.17
101289.09
101285.41
101292.79
101293.74
101293.24
101295.15
101300.62
101302.67
101310.51
101302.81
101305.31
101306.39
101306.22
101302.68
101294.78
101291.8
101281.3
101280.9
101286.56
101270.24
101272.88
101256.4
101261.3
101259.81
101265.23
101259.16
101251.95
101243.04
101250.43
101259.33
101252.2
101243.44
101231.58
101242.02
101251.55
101260.83
101264.3
101270.31
101286.58
101281.24
101276.58
101272.5
101275.05
101271.55
101275.37
101278.26
101285.18
101292.98
101293.07
101300.03
101287.02
101283.72
101282.02
101281.93
101287.4
101300.19
101292.15
101294.52
101286.78
101284.99
101294.34
101302.15
101301.19
101307.49
101302.99
101311.77
101303.97
101299.32
101303.43
101311.54
101308.33
101300.95
101299.7
101299.15
101299.56
101298.86
101300.58
101296.65
101303
101305.41
101305.36
101307.24
101299.52
101300.1
101298.76
101305.03
101304.6
101306.05
101306.11
101298.95
101291.44
101282.84
101285.49
101282.49
101274.39
101265.78
101259.35
101253.06
101243.45
101251.54
101242.2
101252.68
101245.86
101233.31
101221.37
101233.14
101243.58
101232.97
101219.64
101209.77
101191.22
101167.74
101196.21
101178.74
101142.12
101148.03
101166.65
101133.18
101164.89
101175.12
101193.56
101205.29
101220.55
101208.3
101230.01
101220.39
101195.96
101209.72
101192.91
101222.99
101243.27
101287.99
101269.89
101250.56
101270.88
101237.75
101240.28
101239.73
101239.17
101239.45
101271.63
101290.82
101230.8
101238.91
101240.73
101243.85
101272.37
101241.66
101275.15
101237.7
101248.72
101236.31
101199.59
101204.46
101213.15
101219.49
101188.56
101181.8
101169.1
101173.34
101209.08
101199.32
101210.06
101174.9
101168.05
101186.25
101217.84
101205.13
101200.72
101148.98
101149.98
101149.02
101150.33
101206.5
101191.42
101180.95
101183.22
101195.96
101227.48
101228.09
101226.18
101226.51
101283.98
101217.86
101272.97
101216.41
101218.09
101210.85
101213.91
101191.75
101251.29
101382.38
101269.39
101333.11
101228.97
101234.94
101267.48
101248.64
101328.46
101253.49
101322.72
101332.83
101282.5
101311.09
101234.39
101228.54
101228.77
101235.36
101279.71
101223.08
101277.64
101239.77
101230.58
101246.41
101265.39
101259.98
101370.64
101379.53
101270.59
101332.77
101224.04
101237.21
101250.81
101252.59
101264.23
101270.06
101256.79
101241.16
101229.6
101198.79
101197.9
101156.69
101157.37
101201.08
101238.61
101240.52
101294.51
101269.22
101268.59
101261.82
101268.38
101275.15
101278.8
101283.65
101284.77
101284.69
101299.08
101289.58
101283.11
101273.46
101273.78
101267.8
101278.94
101278.97
101283.24
101281.48
101283.2
101295.52
101295.24
101300.06
101298.68
101301.16
101299.71
101298.51
101289.01
101274.93
101275.93
101289.28
101288.09
101277.61
101279.73
101288.41
101295.21
101284.46
101286.47
101297.54
101300.57
101299.24
101302.18
101309.29
101301.8
101291.99
101291.02
101292.63
101290.42
101278.65
101282.21
101282.66
101286.49
101289.52
101297.52
101301.63
101298.99
101303.02
101308.54
101304.23
101308.17
101314.35
101308.43
101308.37
101301.75
101300.8
101299.78
101305.66
101313.23
101305.07
101314.65
101307.73
101317.19
101295.01
101296.12
101298.28
101303.63
101304.89
101303.36
101294.87
101297.81
101293.6
101308.42
101322.32
101289.01
101291.08
101293.28
101307.86
101316.8
101303.32
101317.34
101316.97
101312.19
101311.75
101317.56
101310.71
101305.76
101306.98
101305.33
101298.44
101295.58
101297.95
101294.44
101286.57
101292.01
101287.59
101292.18
101293.85
101293.53
101290.74
101298.63
101291.01
101297.88
101292.24
101299.15
101296.21
101287.93
101283
101282.4
101285.42
101282.4
101290.52
101283.88
101280.77
101277.74
101267.93
101267.54
101259.7
101260.25
101270.22
101260.44
101248.77
101248.05
101259.59
101269.58
101277.92
101293.3
101293.78
101276.68
101276.62
101273.79
101273.84
101277.7
101290.48
101272.13
101277.17
101291.67
101277.09
101272.34
101259.82
101259.27
101269.1
101273.19
101273.76
101268.49
101260.81
101260.18
101249.26
101249.92
101239.37
101237.74
101235.43
101235.62
101250.77
101251.64
101244.49
101256.09
101255.27
101271.07
101271.02
101269.65
101259.91
101260.01
101255.32
101250.95
101250.78
101260.55
101267.98
101249.53
101249.97
101267.74
101260.37
101260.35
101270.66
101268.68
101260.69
101256.55
101257.98
101273.51