/*--------------------------------*- C++ -*----------------------------------*\
  =========                 |
  \\      /  F ield         | OpenFOAM: The Open Source CFD Toolbox
   \\    /   O peration     | Website:  https://openfoam.org
    \\  /    A nd           | Version:  7
     \\/     M anipulation  |
\*---------------------------------------------------------------------------*/
FoamFile
{
    version     2.0;
    format      ascii;
    class       surfaceScalarField;
    location    "470";
    object      phi;
}
// * * * * * * * * * * * * * * * * * * * * * * * * * * * * * * * * * * * * * //

dimensions      [1 0 -1 0 0 0 0];

internalField   nonuniform List<scalar> 
74673
(
1.8491799e-06
-0.0022047059
-2.3469365e-07
3.2367743e-06
-0.0026627707
-2.5137338e-07
4.4007259e-06
-0.0030390231
-2.5769848e-07
5.4559047e-06
-0.0034218177
-2.6492878e-07
-0.056249371
-2.9231447e-06
1.0161942e-05
-5.5265977e-06
-0.056254376
-2.4636914e-06
2.2783737e-06
1.0717454e-05
-4.4511338e-06
-0.0034228884
-2.3581459e-07
2.3110291e-07
-3.2716632e-06
-0.0030401809
-2.312538e-07
2.0962707e-07
-1.8671904e-06
-0.0026641353
-2.2711496e-07
1.8733715e-07
-0.0022065189
-2.11914e-07
1.5773097e-07
1.898475e-06
-0.0022083742
-1.7225466e-07
1.29206e-07
3.3307563e-06
-0.0026655399
-1.7984815e-07
1.5226196e-07
4.5415231e-06
-0.003041383
-1.7813549e-07
1.6949319e-07
5.6476045e-06
-0.0034240035
-1.7716722e-07
1.8621642e-07
-0.056260043
-1.4837898e-06
1.8000713e-06
1.099822e-05
-5.8101414e-06
-0.056266306
-4.3232054e-07
1.2236995e-06
1.128201e-05
-4.6600534e-06
-0.0034251623
-1.1628363e-07
1.2503899e-07
-3.411404e-06
-0.0030426221
-1.2339218e-07
1.1377675e-07
-1.9396518e-06
-0.0026669827
-1.3139923e-07
1.0245492e-07
-0.0022102694
-1.320366e-07
8.7545171e-08
1.9852956e-06
-0.0022122094
-1.0122838e-07
5.6017668e-08
3.4999622e-06
-0.0026684679
-9.3849676e-08
6.4445416e-08
4.7939405e-06
-0.0030439066
-8.056758e-08
7.1139553e-08
5.9891232e-06
-0.0034263671
-6.8648686e-08
7.822462e-08
-0.056273186
4.197243e-07
7.6987731e-07
1.167912e-05
-6.1930805e-06
-0.056280707
9.8611335e-07
4.8469961e-07
1.2243597e-05
-4.9476054e-06
-0.0034276221
-4.0110657e-08
4.9702776e-08
-3.6025818e-06
-0.0030452415
-5.5421427e-08
4.5367139e-08
-2.036758e-06
-0.0026700033
-7.2053387e-08
4.1722255e-08
-0.0022141997
-8.3682232e-08
3.7198147e-08
2.092012e-06
-0.0022162431
-7.7966358e-08
2.9440856e-08
3.7138106e-06
-0.0026715929
-6.4116205e-08
3.1946468e-08
5.1143152e-06
-0.0030466306
-4.5533143e-08
3.4159449e-08
6.4211368e-06
-0.0034289375
-2.8364245e-08
3.6944876e-08
-0.056288882
1.2944425e-06
3.4065946e-07
1.2961534e-05
-6.6756435e-06
-0.056297785
1.4528733e-06
3.0158165e-07
1.3824037e-05
-5.3018775e-06
-0.0034303192
-2.6357419e-08
3.4310885e-08
-3.8381898e-06
-0.0030480815
-4.4698778e-08
3.1941623e-08
-2.1567973e-06
-0.0026732401
-6.4323914e-08
3.0211314e-08
-0.0022183489
-7.9215463e-08
2.8260895e-08
2.2263729e-06
-0.0022205351
-8.2578433e-08
4.2511125e-08
3.9744531e-06
-0.0026749666
-6.7058674e-08
4.553798e-08
5.5121597e-06
-0.0030496203
-4.6582339e-08
4.7733752e-08
6.9569531e-06
-0.003431787
-2.7405623e-08
5.0462602e-08
-0.056307647
1.565849e-06
3.8270236e-07
1.487038e-05
-7.2778426e-06
-0.056318396
1.6657152e-06
3.1807495e-07
1.6042927e-05
-5.746241e-06
-0.0034333256
-3.0426667e-08
3.7468273e-08
-4.1313787e-06
-0.0030512197
-5.0642348e-08
3.515672e-08
-2.3041631e-06
-0.0026767554
-7.1872589e-08
3.3494536e-08
-0.0022227831
-8.8024633e-08
3.1808842e-08
2.3913214e-06
-0.0022251145
-9.498164e-08
3.5169631e-08
4.3084942e-06
-0.0026786316
-7.8184671e-08
3.7199272e-08
6.0156072e-06
-0.0030529099
-5.5990794e-08
3.9084555e-08
7.6403055e-06
-0.003434957
-3.4856725e-08
4.1580136e-08
-0.056330194
1.7594737e-06
3.4884018e-07
1.7330163e-05
-8.0558707e-06
-0.056343125
1.8437086e-06
3.9177102e-07
1.8751722e-05
-6.31907e-06
-0.0034366982
-4.182058e-08
4.6210345e-08
-4.5073352e-06
-0.0030547009
-6.3989301e-08
4.329393e-08
-2.4917624e-06
-0.0026806014
-8.6829909e-08
4.1102714e-08
-0.0022275408
-1.040219e-07
3.8566873e-08
2.6070085e-06
-0.0022300748
-1.1507081e-07
4.2037492e-08
4.7389088e-06
-0.0026826807
-9.7501941e-08
4.4956872e-08
6.6734224e-06
-0.0030566094
-7.3632416e-08
4.7633773e-08
8.531995e-06
-0.0034385575
-5.0312419e-08
5.1056921e-08
-0.056357347
1.9223278e-06
4.4154959e-07
2.0390063e-05
-9.0890569e-06
-0.056373126
2.0172464e-06
4.9771719e-07
2.2353273e-05
-7.0809809e-06
-0.0034405606
-6.1051491e-08
5.6106079e-08
-5.0079784e-06
-0.0030586491
-8.5542102e-08
5.2235944e-08
-2.7391268e-06
-0.0026848881
-1.1039128e-07
4.9015548e-08
-0.0022327306
-1.2861097e-07
4.5352735e-08
2.8947262e-06
-0.0022355299
-1.4382141e-07
4.8416608e-08
5.3235437e-06
-0.0026872446
-1.2497729e-07
5.2626394e-08
7.564417e-06
-0.0030608476
-9.8707218e-08
5.6402374e-08
9.7432173e-06
-0.0034427277
-7.2580013e-08
6.0874779e-08
-0.056390707
2.1423204e-06
5.5827792e-07
2.4623702e-05
-1.0520519e-05
-0.056410287
2.3023413e-06
6.1500588e-07
2.7182932e-05
-8.1345116e-06
-0.0034450929
-8.5925891e-08
6.5089228e-08
-5.6978978e-06
-0.00306323
-1.1424553e-07
6.0006798e-08
-3.0764329e-06
-0.0026897798
-1.4195824e-07
5.5713209e-08
-0.0022384955
-1.6167025e-07
5.0842468e-08
3.2971171e-06
-0.0022416638
-1.8065484e-07
5.1746537e-08
6.1451965e-06
-0.0026925257
-1.5929409e-07
5.7097377e-08
8.8223634e-06
-0.0030658396
-1.2942492e-07
6.1861669e-08
1.1450458e-05
-0.00344769
-9.8564876e-08
6.7582329e-08
-0.056432221
2.5433035e-06
6.6051414e-07
3.0180257e-05
-1.2583753e-05
-0.056456952
2.880634e-06
6.3111286e-07
3.3803439e-05
-9.6574001e-06
-0.0034505588
-1.1205971e-07
5.45465e-08
-6.6950005e-06
-0.0030687041
-1.4646097e-07
4.8587318e-08
-3.5654155e-06
-0.0026955194
-1.7948971e-07
4.3778873e-08
-0.002245065
-2.0323742e-07
3.9054515e-08
3.8966341e-06
-0.0022487834
-2.3293209e-07
5.4806397e-08
7.3710819e-06
-0.002698849
-2.0679327e-07
6.2043876e-08
1.0690765e-05
-0.0030719223
-1.701832e-07
6.875411e-08
1.3982968e-05
-0.0034537961
-1.3138459e-07
7.6501705e-08
-0.056485191
3.2625774e-06
8.145707e-07
3.8144591e-05
-1.5729332e-05
-0.056517418
3.7482587e-06
9.3403377e-07
4.3273755e-05
-1.1987161e-05
-0.0034574645
-1.5668222e-07
8.2955261e-08
-8.2181626e-06
-0.0030755634
-2.0136815e-07
7.3562728e-08
-4.3088788e-06
-0.0027025807
-2.4300635e-07
6.5440854e-08
-0.0022528764
-2.7269779e-07
5.6828993e-08
4.8361381e-06
-0.0022574482
-3.2071863e-07
5.6422324e-08
9.295009e-06
-0.0027068208
-2.8546272e-07
6.6724464e-08
1.3625406e-05
-0.0030797334
-2.3682929e-07
7.6357815e-08
1.7940406e-05
-0.0034616826
-1.8442986e-07
8.7506962e-08
-0.056554466
4.4335345e-06
1.0517801e-06
4.9503611e-05
-2.0744017e-05
-0.056597464
5.3984143e-06
1.1752604e-06
5.7168008e-05
-1.5707935e-05
-0.0034665962
-2.1299773e-07
9.0560871e-08
-1.0665391e-05
-0.0030845776
-2.7590445e-07
7.759082e-08
-5.5044992e-06
-0.0027117139
-3.3373245e-07
6.6007635e-08
-0.0022626301
-3.7608079e-07
5.3504767e-08
6.3687522e-06
-0.0022686071
-4.381205e-07
4.6391784e-08
1.242929e-05
-0.0027174488
-3.8714928e-07
6.1519771e-08
1.8389883e-05
-0.0030902962
-3.1726677e-07
7.5249378e-08
2.4347994e-05
-0.0034724044
-2.4063924e-07
9.0725286e-08
-0.056647878
6.7426736e-06
1.3051649e-06
6.671435e-05
-2.9014016e-05
-0.056707606
8.5761037e-06
1.3979163e-06
7.8768246e-05
-2.1866532e-05
-0.003479372
-2.6256304e-07
8.2679502e-08
-1.4719318e-05
-0.0030971513
-3.5699361e-07
6.4910469e-08
-7.4820716e-06
-0.0027242929
-4.4219458e-07
4.900892e-08
-0.0022756173
-5.0348603e-07
3.1596336e-08
8.9386246e-06
-0.0022839988
-5.5991227e-07
2.6743908e-09
1.7694921e-05
-0.002732584
-4.8455929e-07
1.9307236e-08
2.638528e-05
-0.0031054983
-3.7944951e-07
3.6078316e-08
3.508178e-05
-0.0034878619
-2.6231129e-07
5.568753e-08
-0.056779291
1.1151974e-05
1.3783135e-06
9.423638e-05
-4.2931374e-05
-0.056866873
1.4846292e-05
1.0943123e-06
0.00011457308
-3.2240107e-05
-0.0034983358
-2.0645195e-07
-1.0929375e-08
-2.1553191e-05
-0.0031158032
-3.5181143e-07
-3.0200688e-08
-1.0826424e-05
-0.0027427833
-4.8312643e-07
-4.4407773e-08
-0.0022941905
-5.8261555e-07
-5.2134611e-08
1.3271744e-05
-0.0023067778
-5.2545065e-07
-1.5903125e-07
2.6575435e-05
-0.0027555309
-3.8840857e-07
-1.6770802e-07
3.9870979e-05
-0.0031287138
-2.2370448e-07
-1.6129521e-07
5.31769e-05
-0.0035114509
-4.440792e-08
-1.4637013e-07
-0.056975802
2.002081e-05
2.7944827e-07
0.00014180553
-6.665561e-05
-0.057114066
2.7838666e-05
-1.3862033e-06
0.000178467
-4.9902938e-05
-0.003528118
2.8970027e-07
-3.7532877e-07
-3.3167896e-05
-0.0031451343
6.3389838e-08
-3.7800424e-07
-1.6463532e-05
-0.0027717279
-1.3867013e-07
-3.6872046e-07
-0.0023226061
-3.0031512e-07
-3.3498737e-07
2.0702373e-05
-0.0023427482
-6.4040622e-09
-5.538865e-07
4.158638e-05
-0.0027921497
1.4547709e-07
-6.0772684e-07
6.256737e-05
-0.0031658578
3.7953678e-07
-6.3700687e-07
8.3598043e-05
-0.0035491546
6.5794491e-07
-6.52007e-07
-0.057293773
3.7132292e-05
-3.7328671e-06
0.00022990525
-0.00010640935
-0.057538993
4.6809532e-05
-6.4705369e-06
0.00031129057
-7.9312322e-05
-0.0035763289
9.6004417e-07
-8.8288909e-07
-5.252271e-05
-0.0031924385
6.4131103e-07
-8.5029374e-07
-2.6089576e-05
-0.0028181858
4.1562032e-07
-8.1284261e-07
-0.0023683848
3.3605367e-07
-7.8901196e-07
3.4657796e-05
-0.0024023516
7.6272836e-07
-1.4538571e-06
7.3926263e-05
-0.0028569821
7.271963e-07
-1.1994447e-06
0.00011424942
-0.0032324912
9.0309093e-07
-1.1735417e-06
0.00015509268
-0.0036173162
1.3929296e-06
-1.2488492e-06
-0.057872954
6.8744817e-05
-1.1929768e-05
0.00043223839
-0.00023390558
-0.058186878
9.2287951e-05
-1.4400236e-05
0.00046994232
-0.00017196696
-0.0036784388
7.814364e-07
-1.5974123e-06
-0.00010880031
-0.0032940246
-1.1942682e-07
-1.5138755e-06
-4.8846198e-05
-0.0029146478
-4.7814843e-07
-1.8101538e-06
-0.0024473472
-1.1631535e-06
-2.6874545e-06
9.7418807e-05
-0.0025307246
-1.3917439e-05
-1.2419745e-07
0.00017977531
-0.0029870638
-8.1542184e-06
-1.7864331e-06
0.000256011
-0.0033640215
-4.4707347e-06
-1.7681033e-06
0.00033395394
-0.0037513391
-4.0789578e-06
-9.6372049e-07
-0.05830084
5.8966686e-05
1.2380368e-05
0.00037656843
0.00010227364
-0.059685676
3.1640247e-05
-2.857847e-05
0.0012795009
7.1492012e-05
-0.0037243442
1.1104495e-05
-7.3176634e-06
4.6184633e-05
-0.0033415855
1.0061687e-05
-7.1902139e-06
2.322507e-05
-0.0029685388
1.2217972e-05
-7.7832407e-06
-0.0025187674
2.1969604e-05
-1.0701656e-05
-2.5320989e-05
-0.002401715
-0.00010097583
9.244465e-06
-5.4271492e-05
-0.0028294469
-0.00011355162
3.4103222e-06
-8.9903683e-05
-0.0031863816
-0.00012149816
1.9265469e-06
-0.00013239718
-0.0035537879
-0.00013024821
2.185422e-06
-0.059744589
-0.0018951715
3.3151764e-05
0.0017885356
0.00056491019
-0.056485293
-0.0031151266
6.9521054e-05
-0.00077860126
0.00039261402
-0.0031939297
-0.0002002309
1.2668807e-05
0.00024248394
-0.0028609697
-0.0001871846
1.1902731e-05
0.00011097163
-0.0025392017
-0.00017126494
1.2532001e-05
-0.0021614073
-0.000144568
1.523199e-05
-2.0399648e-05
0.0020319275
-0.0021312024
-0.0020417328
-4.9452262e-05
0.0024146064
-0.0025179934
-0.0024067621
-8.0336323e-05
0.0027561294
-0.0028557975
-0.0027304175
-0.00011151782
0.0031215263
-0.0032101883
-0.0030740862
0.071676591
-0.027760268
-0.034785302
-0.065727831
0.00028834929
0.087112111
-0.014463012
-0.0043759838
0.00018966907
0.003835944
-0.0008159684
0.00010001364
0.0033824597
-0.00072385954
2.8923136e-05
0.0029556569
-0.00064122503
0.0024703849
-0.00055410232
-9.8133996e-05
0.0024750302
-7.4872041e-06
-0.00019644273
0.0029650513
-2.4637222e-05
-0.00029742684
0.003398295
-3.6349343e-05
-0.00040791259
0.0038626535
-4.6471979e-05
0.085476951
-0.0016065264
0.00093860153
-0.00025199961
0.085072936
-0.00056053273
0.0012481881
-0.00020185072
0.0038678259
-4.421673e-05
-0.00015356415
0.0034006606
-4.0590422e-05
-9.4408399e-05
0.0029602304
-4.211687e-05
0.0024531242
-5.0532714e-05
6.1213446e-05
0.0023843569
-6.3637025e-06
0.00013328187
0.002891503
-1.1495283e-05
0.00021264869
0.003330207
-1.3383956e-05
0.00029628558
0.0037935847
-1.3474707e-05
0.084856206
-0.00013561565
0.00070759747
-0.00022228116
0.084410444
-3.719018e-05
0.00079752155
-0.00015828432
0.0037318753
-1.5059842e-06
-9.7389296e-05
0.0032704022
-1.2097151e-06
-4.2092626e-05
0.0028364166
-6.8836976e-07
0.0023404984
6.0266666e-07
3.2304631e-05
0.0023089813
-2.4792188e-08
6.958488e-05
0.0028000248
-1.6125395e-07
0.00010945272
0.00323174
-3.025229e-07
0.00015192218
0.0036912302
-4.3141303e-07
0.083971514
-8.0418936e-06
0.00066763882
-0.00010682639
0.083648021
4.1647205e-06
0.00047296393
-7.7951751e-05
0.0036630639
2.5169316e-07
-5.0642949e-05
0.0032048199
2.5255618e-07
-2.4727566e-05
0.0027742378
2.8718192e-07
0.0022842597
3.3009186e-07
1.9277768e-05
0.0022645244
4.5099076e-07
3.9634708e-05
0.0027535933
4.3305263e-07
6.107858e-05
0.0031833305
4.250856e-07
8.3651122e-05
0.0036407214
4.278796e-07
0.083406753
3.8983491e-06
0.00035815376
-6.5890097e-05
0.083218038
2.9062173e-07
0.0002821528
-4.7984333e-05
0.0036227944
3.1097549e-07
-3.1025199e-05
0.0031661017
3.3308935e-07
-1.4975017e-05
0.0027370496
3.5489564e-07
0.0022488664
3.8273482e-07
1.1828941e-05
0.0022362467
2.6530796e-07
2.4406629e-05
0.0027238645
2.1902506e-07
3.7707983e-05
0.0031523968
1.7980333e-07
5.1790583e-05
0.0036085274
1.3997065e-07
0.083067439
-2.3252438e-06
0.0002247357
-4.1666154e-05
0.082944875
-3.6943088e-06
0.00018277088
-3.0374243e-05
0.0035970061
2.284087e-08
-1.9730307e-05
0.0031413309
7.0198102e-08
-9.6361879e-06
0.0027131709
1.163033e-07
0.0022258609
1.6694902e-07
8.0030831e-06
0.0022171898
1.080867e-07
1.6273701e-05
0.0027043584
5.7309923e-08
2.4964874e-05
0.0031322495
1.0774461e-08
3.418985e-05
0.0035875559
-3.7016945e-08
0.082843625
-4.1428335e-06
0.0001507349
-2.853049e-05
0.082758733
-4.0546033e-06
0.00012605249
-2.0884039e-05
0.0035797063
-5.9445472e-08
-1.3673839e-05
0.0031246971
-1.4770057e-08
-6.7729442e-06
0.0026969869
2.8415666e-08
0.0022098382
7.516087e-08
5.8448022e-06
0.0022034995
5.5812822e-08
1.1693026e-05
0.0026907373
1.4257751e-08
1.7766795e-05
0.0031183304
-2.4396043e-08
2.4196823e-05
0.0035731
-6.4350051e-08
0.082686789
-3.7482859e-06
0.00010663193
-2.0826585e-05
0.082625294
-3.3653742e-06
9.1085509e-05
-1.5345876e-05
0.0035674666
-6.0280568e-08
-1.0156221e-05
0.00311289
-2.5109473e-08
-5.1205632e-06
0.0026853591
8.7840804e-09
0.0021979579
4.4937681e-08
4.5571204e-06
0.002193041
3.8983997e-08
8.9537676e-06
0.0026806687
8.2986395e-09
1.3450686e-05
0.0031081772
-2.0927835e-08
1.8184327e-05
0.0035626001
-5.1613431e-08
0.082572237
-2.9689278e-06
7.8643926e-05
-1.6097306e-05
0.082526041
-2.6033406e-06
6.8644402e-05
-1.1954463e-05
0.0035583426
-4.2041436e-08
-8.0058749e-06
0.0031040425
-1.5246557e-08
-4.1089748e-06
0.0026765191
9.7101644e-09
0.0021886239
3.5503215e-08
3.7545589e-06
0.0021846031
3.328674e-08
7.2482735e-06
0.0026728071
1.1498745e-08
1.0760123e-05
0.0031003705
-1.0070874e-08
1.4427031e-05
0.0035545776
-3.3279817e-08
0.082485527
-2.2734227e-06
6.0477074e-05
-1.3068409e-05
0.08244987
-2.0154964e-06
5.3622441e-05
-9.7858123e-06
0.003551212
-2.9075429e-08
-6.6321264e-06
0.003097079
-8.5826454e-09
-3.4582801e-06
0.0026694435
1.0251979e-08
0.0021809126
2.900345e-08
3.2190214e-06
0.0021774881
2.4712569e-08
6.1214621e-06
0.0026663741
7.6117457e-09
8.9877621e-06
0.0030940925
-9.2894147e-09
1.1954021e-05
0.0035481747
-2.7522612e-08
0.082418305
-1.8165252e-06
4.7878534e-05
-1.1027668e-05
0.08239013
-1.6035239e-06
4.3108851e-05
-8.3240466e-06
0.003545407
-2.1769682e-08
-5.7004599e-06
0.0030913604
-5.6917566e-09
-3.0185121e-06
0.0026635412
8.9860142e-09
0.0021742842
2.3700852e-08
2.8458315e-06
0.0021712677
2.684538e-08
5.3443366e-06
0.0026609033
1.4400009e-08
7.7642579e-06
0.00308884
1.7805214e-09
1.024743e-05
0.0035428635
-1.2275331e-08
0.082364842
-1.360423e-06
3.9038122e-05
-9.5862497e-06
0.082342128
-1.1610654e-06
3.5478261e-05
-7.2900132e-06
0.0035405106
-4.4333258e-09
-5.0415145e-06
0.003086498
7.911684e-09
-2.7043675e-06
0.0026584368
1.9027679e-08
0.002168405
2.977365e-08
2.5745859e-06
0.0021656825
3.2834837e-08
4.7804427e-06
0.00265611
2.3392504e-08
6.8851263e-06
0.0030843062
1.346109e-08
9.0199998e-06
0.0035383229
2.5451629e-09
0.082321654
-9.8792284e-07
3.2404224e-05
-8.5310535e-06
0.082303055
-8.4820096e-07
2.9821501e-05
-6.5309906e-06
0.0035362726
8.4672533e-09
-4.554983e-06
0.0030822481
1.8205572e-08
-2.4673031e-06
0.0026539086
2.6927032e-08
0.0021630761
3.515582e-08
2.3714507e-06
0.0021605735
3.6161605e-08
4.3598404e-06
0.0026518139
2.813921e-08
6.2273122e-06
0.0030803048
1.9788502e-08
8.1053947e-06
0.0035343488
1.0809132e-08
0.082286103
-7.5908861e-07
2.7576047e-05
-7.7294432e-06
0.082270679
-7.1710957e-07
2.5536642e-05
-5.9551904e-06
0.0035325338
1.0368694e-08
-4.183415e-06
0.0030784635
1.8915188e-08
-2.2838809e-06
0.0026498156
2.6928875e-08
0.0021581669
3.4732389e-08
2.2109456e-06
0.0021558399
3.3552343e-08
4.0309845e-06
0.002647903
2.5510937e-08
5.7193309e-06
0.003076711
1.7574746e-08
7.3987944e-06
0.0035308175
9.4702122e-09
0.08225666
-6.8697586e-07
2.3670465e-05
-7.1019077e-06
0.082243876
-6.6122308e-07
2.1999987e-05
-5.5011194e-06
0.0035291815
8.8121482e-09
-3.8905639e-06
0.0030750391
1.6644366e-08
-2.1379388e-06
0.0026460618
2.4306049e-08
0.0021535906
3.2143381e-08
2.0772916e-06
0.0021514057
2.9724556e-08
3.7649573e-06
0.0026442885
2.1510825e-08
5.3082621e-06
0.0030734366
1.3708224e-08
6.8354272e-06
0.0035276202
5.8467849e-09
0.082232147
-6.8421913e-07
2.0543265e-05
-6.5947189e-06
0.082221383
-8.55624e-07
1.9200985e-05
-5.1366004e-06
0.0035261299
-7.8854086e-09
-3.6520236e-06
0.0030718957
9.0199555e-10
-2.0204751e-06
0.002642575
9.9509286e-09
0.0021492816
1.9961093e-08
1.9701823e-06
0.0021472125
-2.204024e-09
3.5498312e-06
0.0026409178
-1.6293627e-08
4.9804195e-06
0.0030704129
-2.8319728e-08
6.3805491e-06
0.0035247008
-3.9674174e-08
0.082211517
-1.2706405e-06
1.7936497e-05
-6.1932774e-06
0.082202481
-1.9426936e-06
1.6739509e-05
-4.8423635e-06
0.0035233247
-9.1080353e-08
-3.4601694e-06
0.0030689828
-7.5547644e-08
-1.9241756e-06
0.0026393093
-5.8846521e-08
0.0021451945
-3.8205188e-08
1.8821928e-06
0.0021432229
-8.2787165e-08
3.3808695e-06
0.0026377424
-1.1163322e-07
4.7195328e-06
0.0030676002
-1.3417027e-07
6.0230831e-06
0.0035219992
-1.5520912e-07
0.082194211
-2.7870623e-06
1.559654e-05
-5.9203519e-06
0.082186673
-3.5064622e-06
1.4501016e-05
-4.6444172e-06
0.003520699
-2.1153959e-07
-3.3281726e-06
0.0030662388
-1.860562e-07
-1.855852e-06
0.0026362014
-1.5834738e-07
0.0021412773
-1.2215261e-07
1.8123358e-06
-1.3106338e-07
3.2480579e-06
-1.6852823e-07
4.5270791e-06
-1.9729242e-07
5.7633533e-06
-2.238091e-07
-3.6303711e-06
1.3366491e-05
-5.8628878e-06
-0.082191938
-6.8057839e-06
7.7426799e-06
-4.6009473e-06
-0.00352187
-4.3403246e-07
5.4407713e-07
-3.3003932e-06
-0.0030674915
-3.8606586e-07
5.102193e-07
-1.8400191e-06
-0.0026376621
-3.335229e-07
4.7438967e-07
-0.0021431783
-2.641143e-07
4.1711871e-07
1.8677403e-06
-0.0021451877
-1.4434065e-07
2.8628478e-07
3.344739e-06
-0.0026392659
-1.9315725e-07
3.2017525e-07
4.6665485e-06
-0.0030689209
-2.3060075e-07
3.3831121e-07
5.9494933e-06
-0.0035232438
-2.6439617e-07
3.5531462e-07
-0.082200585
-4.5522059e-06
4.6266764e-06
1.4522724e-05
-6.1058499e-06
-0.082209773
-2.5543335e-06
1.8718193e-06
1.5975478e-05
-4.7782984e-06
-0.0035246462
-1.1601753e-07
1.9093942e-07
-3.4179464e-06
-0.0030703754
-9.4742122e-08
1.8896759e-07
-1.9041586e-06
-0.0026408954
-7.0718576e-08
1.8648998e-07
-0.0021472251
-4.0188602e-08
1.7340239e-07
1.947782e-06
-0.0021493022
3.7017507e-08
9.2331426e-08
3.5065745e-06
-0.0026425641
1.9567698e-08
9.0397397e-08
4.9111439e-06
-0.0030718665
5.1404357e-09
8.140316e-08
6.2866628e-06
-0.003526087
-7.1583931e-09
7.2392609e-08
-0.082219629
-1.0969601e-06
-1.4239614e-07
1.7382043e-05
-6.4918709e-06
-0.082230303
-1.967307e-07
-1.4150732e-06
1.8778073e-05
-5.0613606e-06
-0.0035275789
6.0720807e-08
7.2525691e-10
-3.6046601e-06
-0.0030734073
6.7653216e-08
1.6523899e-08
-1.9972128e-06
-0.0026442803
7.6138425e-08
3.2657655e-08
-0.0021514287
8.5524843e-08
4.3839632e-08
2.0532719e-06
-0.0021536142
1.1388706e-07
1.8362487e-08
3.7144989e-06
-0.0026460523
1.0849348e-07
2.3235305e-09
5.2294621e-06
-0.0030750072
1.0280103e-07
-1.7824786e-08
6.7254238e-06
-0.0035291358
9.8613681e-08
-3.7690441e-08
-0.082241892
2.894753e-07
-2.1460237e-06
2.0171209e-05
-6.9863656e-06
-0.082254521
5.2606032e-07
-2.5600467e-06
2.1649791e-05
-5.418354e-06
-0.0035307674
1.2027695e-07
-5.6649586e-08
-3.8368424e-06
-0.0030766776
1.2329392e-07
-3.4415898e-08
-2.1152612e-06
-0.0026478895
1.2767605e-07
-1.2030715e-08
-0.0021558675
1.3137795e-07
6.6340646e-09
2.1807178e-06
-0.0021581934
1.4336648e-07
1.9685257e-09
3.9699852e-06
-0.0026498011
1.401796e-07
-1.7705216e-08
5.6229732e-06
-0.0030784252
1.3595614e-07
-4.1260115e-08
7.2683336e-06
-0.0035324809
1.3308113e-07
-6.4940902e-08
-0.082268355
6.2379854e-07
-2.8100586e-06
2.3288658e-05
-7.5911282e-06
-0.082283507
6.346205e-07
-2.9785264e-06
2.5087171e-05
-5.8550959e-06
-0.0035342903
1.4037137e-07
-6.6997862e-08
-4.119403e-06
-0.0030802623
1.4372428e-07
-4.2347225e-08
-2.2539355e-06
-0.0026517971
1.4835249e-07
-1.7797245e-08
-0.0021606022
1.5200917e-07
2.7985816e-09
2.3347628e-06
-0.0021631032
1.632572e-07
3.0185919e-09
4.2841098e-06
-0.0026538871
1.5888939e-07
-1.8206706e-08
6.1087032e-06
-0.0030821967
1.5354783e-07
-4.36455e-08
7.9441702e-06
-0.0035362061
1.4980475e-07
-6.9425435e-08
-0.082300106
6.5303773e-07
-3.1568498e-06
2.7046387e-05
-8.3362427e-06
-0.082318386
7.2479465e-07
-3.393015e-06
2.9285148e-05
-6.3916738e-06
-0.0035382419
1.651823e-07
-7.3921767e-08
-4.4640024e-06
-0.0030842472
1.6934586e-07
-4.6524869e-08
-2.4234833e-06
-0.0026560826
1.7490534e-07
-1.9936443e-08
-0.0021657077
1.7892175e-07
2.1291689e-09
2.5241587e-06
-0.002168432
1.9681934e-07
3.338166e-09
4.671932e-06
-0.0026584028
1.9252935e-07
-2.0055214e-08
6.7168276e-06
-0.0030864306
1.8668913e-07
-4.8114771e-08
8.7912868e-06
-0.0035404213
1.8222012e-07
-7.7285668e-08
-0.082338597
7.9363294e-07
-3.646661e-06
3.1855129e-05
-9.3031284e-06
-0.082360932
8.2670561e-07
-3.9231063e-06
3.473404e-05
-7.0838708e-06
-0.0035427595
1.984249e-07
-7.9525426e-08
-4.9075832e-06
-0.0030887623
2.0385768e-07
-4.84383e-08
-2.6372392e-06
-0.002660865
2.1062253e-07
-1.8731852e-08
-0.0021712906
2.155392e-07
5.8205075e-09
2.7686239e-06
-0.0021743067
2.3939846e-07
8.0264899e-09
5.1806357e-06
-0.0026634926
2.338206e-07
-1.8244368e-08
7.5121804e-06
-0.0030912701
2.2623564e-07
-4.9997563e-08
9.9037505e-06
-0.0035452875
2.1992787e-07
-8.3416868e-08
-0.082385683
8.8501266e-07
-4.2653602e-06
3.8034873e-05
-1.0602275e-05
-0.082413334
9.8189503e-07
-4.6703264e-06
4.1941842e-05
-8.0106661e-06
-0.0035480394
2.4835356e-07
-8.8104166e-08
-5.4965473e-06
-0.0030939883
2.5575761e-07
-5.1737174e-08
-2.9200078e-06
-0.002666316
2.6428636e-07
-1.7485739e-08
-0.0021775078
2.6998138e-07
1.1136656e-08
3.0988901e-06
-0.0021809272
3.037641e-07
1.6617232e-08
5.8734406e-06
-0.0026693735
2.9707909e-07
-1.416983e-08
8.6064234e-06
-0.0030969572
2.8717062e-07
-5.1296911e-08
1.1436711e-05
-0.0035510569
2.7828933e-07
-9.1132999e-08
-0.082444337
1.0435944e-06
-5.1306494e-06
4.6527588e-05
-1.243561e-05
-0.082479232
1.0500925e-06
-5.6299131e-06
5.1909924e-05
-9.3211027e-06
-0.0035543893
3.0696644e-07
-8.9047429e-08
-6.3259952e-06
-0.0031002249
3.1793554e-07
-4.5317025e-08
-3.3122607e-06
-0.0026727126
3.2993177e-07
-4.5960538e-09
-0.0021846077
3.3873663e-07
2.9475891e-08
3.5722231e-06
-0.0021886091
3.8094592e-07
4.8226922e-08
6.8753263e-06
-0.002676397
3.7038902e-07
1.0895455e-08
1.018766e-05
-0.0031038591
3.5625749e-07
-3.4412144e-08
1.3653982e-05
-0.0035581151
3.4296818e-07
-8.3486603e-08
-0.082518754
1.0958953e-06
-6.2346495e-06
5.8314527e-05
-1.5146347e-05
-0.082563899
1.2174649e-06
-7.0080923e-06
6.6082094e-05
-1.1252749e-05
-0.0035623226
3.888942e-07
-7.4891782e-08
-7.5494212e-06
-0.0031079481
4.0445971e-07
-1.8682516e-08
-3.8889238e-06
-0.0026805113
4.2093829e-07
3.3011163e-08
-0.0021930073
4.3365316e-07
7.5578134e-08
4.2794806e-06
-0.0021978943
4.9440762e-07
1.1319073e-07
8.3825799e-06
-0.0026851568
4.7889411e-07
6.3513393e-08
1.2579491e-05
-0.003112608
4.5949017e-07
3.5771191e-09
1.7007382e-05
-0.0035671297
4.4128121e-07
-6.2054975e-08
-0.082615811
1.3610466e-06
-8.004045e-06
7.5563028e-05
-1.9378849e-05
-0.082675913
1.4510277e-06
-9.2543761e-06
8.7283734e-05
-1.4271533e-05
-0.0035726887
4.9582862e-07
-4.4166641e-08
-9.4506453e-06
-0.0031179799
5.177658e-07
3.3253353e-08
-4.7773106e-06
-0.0026904754
5.4158781e-07
1.0370902e-07
-0.0022033956
5.6173898e-07
1.6222567e-07
5.4203939e-06
-0.0022096782
6.3951962e-07
2.2271857e-07
1.0828114e-05
-0.0026966508
6.1338802e-07
1.5432049e-07
1.6451829e-05
-0.0031242588
5.8433095e-07
7.0796523e-08
2.24272e-05
-0.0035792002
5.5801694e-07
-2.1901514e-08
-0.082746184
1.5331076e-06
-1.0860638e-05
0.00010202586
-2.6375607e-05
-0.082829154
1.7311532e-06
-1.2946535e-05
0.0001205606
-1.9281632e-05
-0.0035869325
6.3730938e-07
1.0194821e-09
-1.2617129e-05
-0.0031317044
6.6825146e-07
1.1290113e-07
-6.2561285e-06
-0.0027039272
7.0265081e-07
2.1274502e-07
-0.0022169604
7.3374949e-07
2.9232396e-07
7.3670745e-06
-0.0022255385
8.4984418e-07
3.6110576e-07
1.4983536e-05
-0.0027126237
8.1357021e-07
2.6634469e-07
2.3017027e-05
-0.0031406583
7.7406619e-07
1.4623633e-07
3.1573058e-05
-0.0035962382
7.3927341e-07
1.0380571e-08
-0.082928186
2.1245085e-06
-1.5683983e-05
0.00014416462
-3.8517261e-05
-0.083048105
2.7571797e-06
-1.9209508e-05
0.00017488899
-2.8017882e-05
-0.0036075927
8.7375432e-07
-1.8694449e-08
-1.8165851e-05
-0.0031515655
9.1075153e-07
1.4441464e-07
-8.8598862e-06
-0.0027231738
9.5484164e-07
2.8925515e-07
-0.0022358035
9.9451899e-07
4.1050572e-07
1.0898706e-05
-0.0022482715
1.1666764e-06
4.0253086e-07
2.2535797e-05
-0.0027361882
1.1262923e-06
2.5093931e-07
3.4895741e-05
-0.0031650827
1.0780599e-06
7.9122536e-08
4.8038113e-05
-0.0036216635
1.0408503e-06
-1.1241074e-07
-0.083195747
3.8789674e-06
-2.356595e-05
0.00021536664
-6.1508357e-05
-0.083381307
5.4189173e-06
-2.9110509e-05
0.00027076051
-4.4673289e-05
-0.0036394096
1.1895781e-06
-2.7858144e-07
-2.8790227e-05
-0.0031821328
1.2248814e-06
-5.7865608e-08
-1.3839623e-05
-0.0027525515
1.2701028e-06
1.4248827e-07
-0.0022637438
1.3145712e-06
3.1810504e-07
1.7956757e-05
-0.0022832755
1.4282374e-06
1.4657415e-07
3.7160382e-05
-0.0027731073
1.3352812e-06
1.6881035e-08
5.7514543e-05
-0.0032035806
1.2796959e-06
-1.8609829e-07
7.9007026e-05
-0.0036617243
1.2575142e-06
-4.3524887e-07
-0.08361849
7.3488042e-06
-3.514762e-05
0.00034398891
-0.00010127409
-0.083936758
7.8141282e-06
-3.9256769e-05
0.00045098472
-7.3691544e-05
-0.0036899645
1.052201e-06
-3.9466195e-07
-4.7664983e-05
-0.0032305306
1.0763156e-06
-1.5294055e-07
-2.3174041e-05
-0.0027987818
1.2001642e-06
-1.6734451e-08
-0.0023078444
1.4665317e-06
-7.1592617e-08
3.0374635e-05
-0.0023390099
1.1714044e-06
-3.8072012e-07
6.5312125e-05
-0.002834375
4.6039599e-07
1.9523761e-07
0.0001031786
-0.0032687634
1.5068465e-07
2.156275e-07
0.00014363522
-0.0037304322
5.4488504e-08
-4.342453e-08
-0.08438525
-5.1571869e-07
-4.4225165e-05
0.00063686764
-0.00023303002
-0.084859877
-2.4073029e-05
-5.7959076e-05
0.00078968954
-0.00016651167
-0.0037947398
-2.2992198e-06
8.8442827e-08
-0.00010307774
-0.0033305897
-2.1441089e-06
5.3642645e-07
-4.5019381e-05
-0.0028915554
-1.5124749e-06
6.3446133e-07
-0.0023837328
2.981339e-07
-5.9465408e-07
6.4928331e-05
-0.0024477817
-2.4075393e-06
1.5280122e-06
0.00014327319
-0.0029636095
-6.9981431e-06
7.0736642e-07
0.00022840426
-0.0034063644
-8.1369107e-06
-1.2194725e-06
0.00031565799
-0.003872241
-8.5011701e-06
-1.2513197e-06
-0.085036828
-7.1547874e-05
-7.3331868e-05
0.00063748862
-0.00023421625
-0.085514137
-0.00035510418
0.00012583636
0.00094079294
-0.00018862105
-0.0038915429
-6.0520491e-06
-2.0241253e-05
-0.00014738046
-0.0034227478
-2.914205e-06
-2.1942917e-05
-9.5127716e-05
-0.0029909192
-8.5885818e-07
-2.4084116e-05
-0.0025102069
-2.9565393e-06
-2.9745884e-05
-0.00016581206
-0.00240812
-4.198603e-05
0.00010571124
-0.00032409194
-0.0028955284
-5.3445972e-05
0.00011633503
-0.00048842171
-0.0033212953
-6.3111613e-05
0.00012598892
-0.00067253887
-0.0037695068
-7.326573e-05
0.00013534674
-0.088134105
-0.0017347368
0.0020348069
0.0016473588
-1.0857264e-05
-0.071816513
-0.014733084
0.002924202
-0.0044978531
-3.232877e-05
-0.0031146131
-0.00080513759
0.00017171539
-4.7332099e-05
-0.0027498753
-0.0007139834
0.00015756666
-4.3796448e-05
-0.0024092482
-0.00063144052
0.00014162469
-0.0020253135
-0.00054152785
0.0001149249
1.5964704e-05
0.0021209336
2.9415777e-05
0.0025002372
4.3502101e-05
0.0028227599
5.5248168e-05
0.0031582516
0.056233158
0.00060125573
0.07043781
-0.0001381711
-0.0084590257
0.00042426967
0.0037779643
-2.093845e-05
0.00026459703
0.00334898
-2.0804985e-05
0.00012222778
0.0029405359
-2.2069586e-05
0.0024701303
-2.6361064e-05
-0.00021849841
0.002570955
7.5687699e-05
-0.00043502923
0.0030357004
6.7920389e-05
-0.00065700215
0.0034430066
6.4834769e-05
-0.00089392916
0.0038775025
6.4123093e-05
0.067653523
0.0003432571
-0.00018763599
-4.3558806e-05
0.066894865
8.7551937e-05
0.00035956005
-4.5055663e-05
0.0038526711
2.0276145e-05
-4.7141012e-05
0.0034208366
2.13411e-05
-3.8773854e-05
0.0030055142
2.0960077e-05
0.0025113499
1.7874631e-05
5.7844644e-05
0.0024395017
1.1596e-05
0.00011626504
0.0029278496
1.2246131e-05
0.00017660835
0.0033405779
1.1778416e-05
0.00023905597
0.0037706739
1.104842e-05
0.066755804
1.2229212e-05
0.00029434024
-0.00019300311
0.066371382
1.5585926e-05
0.00053776643
-0.00013927453
0.0037062961
8.3500252e-06
-8.7145726e-05
0.0032775044
8.8005509e-06
-3.8480678e-05
0.0028685171
9.1548685e-06
0.0023921609
9.1582372e-06
2.7867537e-05
0.0023591141
6.3507363e-06
5.8670527e-05
0.0028319072
6.2672707e-06
9.1210806e-05
0.0032391101
6.0047538e-06
0.00012539963
0.0036664848
5.6768755e-06
0.066012883
9.7954579e-06
0.00047358695
-9.2003422e-05
0.065764665
6.1541928e-06
0.00034188147
-6.801087e-05
0.0036397459
3.798587e-06
-4.4915006e-05
0.0032130627
4.027833e-06
-2.2491228e-05
0.0028064532
4.230347e-06
0.0023337622
4.3271747e-06
1.8029796e-05
0.0023141729
2.9876769e-06
3.6287886e-05
0.0027866195