/*--------------------------------*- C++ -*----------------------------------*\
  =========                 |
  \\      /  F ield         | OpenFOAM: The Open Source CFD Toolbox
   \\    /   O peration     | Website:  https://openfoam.org
    \\  /    A nd           | Version:  7
     \\/     M anipulation  |
\*---------------------------------------------------------------------------*/
FoamFile
{
    version     2.0;
    format      ascii;
    class       volScalarField;
    location    "470";
    object      T;
}
// * * * * * * * * * * * * * * * * * * * * * * * * * * * * * * * * * * * * * //

dimensions      [0 0 0 1 0 0 0];

internalField   nonuniform List<scalar> 
24789
(
300.15121
300.14158
300.13429
300.12812
300.09668
300.09853
300.13112
300.13751
300.14504
300.15498
300.15901
300.14873
300.14094
300.13432
300.10049
300.10251
300.13769
300.14456
300.15264
300.16328
300.16784
300.15679
300.1484
300.14125
300.10461
300.10678
300.14503
300.15248
300.16121
300.1727
300.17792
300.16593
300.15682
300.14904
300.10903
300.11135
300.15331
300.16147
300.171
300.18353
300.18959
300.17644
300.16645
300.15788
300.11375
300.11624
300.16278
300.1718
300.18232
300.19615
300.20327
300.18868
300.17757
300.16804
300.1188
300.12145
300.17371
300.18382
300.19559
300.21104
300.21954
300.20311
300.19059
300.17983
300.12417
300.12695
300.18646
300.19796
300.21131
300.22885
300.23909
300.22029
300.20598
300.19365
300.12978
300.13264
300.20144
300.21472
300.23012
300.25035
300.26276
300.2409
300.22426
300.2099
300.13549
300.13828
300.21907
300.23465
300.25271
300.27643
300.29146
300.26562
300.24596
300.22898
300.14093
300.14335
300.23964
300.2582
300.27969
300.30793
300.32583
300.29489
300.27134
300.25099
300.14541
300.14691
300.26291
300.28526
300.31112
300.34506
300.36534
300.3281
300.29971
300.27514
300.14759
300.14711
300.28722
300.31419
300.34532
300.38607
300.40622
300.36183
300.32784
300.29833
300.14496
300.14041
300.30721
300.33929
300.37613
300.42408
300.43712
300.38605
300.34658
300.31208
300.13255
300.1197
300.30984
300.34631
300.38779
300.44083
300.42714
300.3748
300.33296
300.29557
300.099
300.06978
300.26772
300.30424
300.34278
300.38724
300.30961
300.28608
300.25583
300.22319
300.03629
299.95774
300.09
300.11286
300.13194
300.13293
299.74831
299.75281
299.75219
299.75138
299.75358
299.63238
299.60557
299.60205
299.60152
299.60427
299.63278
299.62389
299.61977
299.61774
299.60989
299.57466
299.53391
299.52759
299.52474
299.52453
299.5381
299.52946
299.53376
299.54144
299.57098
299.57819
299.53976
299.53428
299.53443
299.5498
299.62597
299.6043
299.5994
299.60154
299.61766
299.65034
299.62639
299.62438
299.62577
299.63158
299.87068
299.86362
299.85186
299.84063
299.77642
299.95581
300.12955
300.15547
300.17808
300.18857
300.34306
300.3158
300.28419
300.25115
300.03375
300.06624
300.29615
300.33268
300.3711
300.41489
300.45442
300.40422
300.36294
300.32552
300.09568
300.11733
300.34154
300.37834
300.41972
300.47189
300.46812
300.41928
300.3798
300.3447
300.1307
300.13887
300.34015
300.37321
300.41065
300.45812
300.44237
300.39734
300.36217
300.3313
300.1438
300.14629
300.31992
300.34854
300.38125
300.42322
300.40283
300.36392
300.33365
300.30723
300.14701
300.14648
300.29407
300.31842
300.34636
300.38234
300.36241
300.32918
300.3034
300.28098
300.14508
300.14309
300.2683
300.28897
300.31275
300.34344
300.32564
300.29727
300.27529
300.25622
300.1407
300.13807
300.24484
300.26248
300.28282
300.30908
300.29379
300.26943
300.25056
300.23421
300.1353
300.13246
300.22433
300.23952
300.25706
300.27972
300.2668
300.24567
300.22932
300.21516
300.12961
300.12678
300.20668
300.21991
300.2352
300.25496
300.24411
300.22558
300.21123
300.19883
300.124
300.12128
300.19158
300.20323
300.21673
300.23416
300.22503
300.20858
300.19584
300.18486
300.11864
300.11607
300.17863
300.18902
300.20107
300.21662
300.20889
300.19413
300.18269
300.17284
300.11359
300.1112
300.16746
300.17682
300.1877
300.20175
300.19515
300.18174
300.17136
300.16244
300.10888
300.10664
300.15775
300.16627
300.17619
300.18901
300.18331
300.17102
300.16151
300.15335
300.10447
300.10238
300.14922
300.15705
300.16618
300.17799
300.17301
300.16165
300.15285
300.14533
300.10036
300.09841
300.14166
300.1489
300.15739
300.16835
300.16406
300.15347
300.14527
300.13827
300.09656
300.09779
300.14059
300.14777
300.15617
300.16704
300.1716
300.16033
300.15161
300.14416
300.09965
300.10161
300.14796
300.1557
300.16476
300.17646
300.18166
300.16948
300.16006
300.15199
300.10364
300.10573
300.15628
300.16471
300.17453
300.18723
300.19322
300.17995
300.16968
300.16086
300.10789
300.11013
300.16575
300.175
300.18576
300.19968
300.20665
300.19203
300.18073
300.171
300.11244
300.11483
300.17663
300.18689
300.1988
300.2142
300.22239
300.20613
300.19354
300.18269
300.11729
300.11983
300.18923
300.20073
300.21406
300.23129
300.24099
300.22268
300.20851
300.19629
300.12243
300.12509
300.20391
300.21695
300.23204
300.25156
300.26308
300.24222
300.22609
300.21214
300.12778
300.1305
300.22103
300.23599
300.25328
300.27564
300.28931
300.26529
300.24671
300.23061
300.13318
300.1358
300.24091
300.25826
300.27828
300.30416
300.32023
300.29229
300.27067
300.25192
300.13826
300.14047
300.26359
300.2839
300.30728
300.33748
300.35585
300.32317
300.29785
300.27584
300.14227
300.14349
300.28845
300.31233
300.33975
300.37511
300.39486
300.35666
300.32698
300.30109
300.14383
300.14292
300.3132
300.34122
300.37325
300.41442
300.43262
300.38853
300.35414
300.32396
300.14023
300.13508
300.33215
300.36443
300.40095
300.44715
300.45616
300.40871
300.37024
300.33601
300.12667
300.11323
300.3322
300.36802
300.40824
300.45891
300.43976
300.39168
300.35182
300.31553
300.09143
300.06066
300.28449
300.31969
300.35634
300.39778
300.32348
300.29893
300.27013
300.23863
300.02603
299.95431
300.12681
300.15185
300.17207
300.17622
299.86225
299.85716
299.84456
299.83375
299.77772
299.59012
299.49921
299.48829
299.48394
299.4939
299.73247
299.70363
299.69058
299.6836
299.63634
299.65092
299.72774
299.73833
299.75242
299.77592
299.52218
299.51311
299.51844
299.52976
299.59458
299.68065
299.80982
299.83251
299.86168
299.90224
299.70816
299.67145
299.65779
299.65251
299.62313
299.58402
299.49031
299.47763
299.47119
299.47628
299.82431
299.8256
299.81889
299.81272
299.78535
299.97198
300.12027
300.14488
300.16512
300.16792
300.32732
300.29829
300.26673
300.23337
300.03899
300.06984
300.27343
300.3107
300.35082
300.39907
300.43652
300.38027
300.3371
300.29931
300.09952
300.12053
300.3114
300.34758
300.38914
300.44247
300.43539
300.38475
300.34586
300.31207
300.13347
300.1416
300.30644
300.33759
300.37353
300.42064
300.40204
300.3588
300.32586
300.29736
300.1464
300.14873
300.28644
300.31241
300.34245
300.38189
300.36165
300.32575
300.2984
300.27475
300.14929
300.14861
300.26299
300.28453
300.30944
300.34213
300.32374
300.29392
300.27118
300.25152
300.14705
300.14491
300.24057
300.25857
300.27938
300.30667
300.29096
300.26591
300.24679
300.23026
300.14239
300.13964
300.22064
300.23587
300.25349
300.27657
300.26345
300.2421
300.22578
300.21169
300.13677
300.13384
300.2034
300.21649
300.23164
300.25148
300.24057
300.22206
300.20792
300.19572
300.13092
300.12803
300.18863
300.20004
300.21328
300.2306
300.22149
300.20521
300.19277
300.18205
300.1252
300.12244
300.17596
300.18606
300.19779
300.21314
300.20549
300.19095
300.17985
300.17031
300.11976
300.11717
300.16505
300.17409
300.18463
300.19843
300.19192
300.17877
300.16874
300.16013
300.11467
300.11225
300.15555
300.16375
300.17333
300.18588
300.18027
300.16826
300.15909
300.15124
300.10992
300.10766
300.1472
300.15472
300.16351
300.17505
300.17017
300.15907
300.15061
300.14339
300.10548
300.10337
300.13979
300.14673
300.15488
300.16558
300.16129
300.15095
300.14308
300.13639
300.10135
300.09942
300.13318
300.13964
300.14724
300.15723
300.15386
300.14398
300.1365
300.13016
300.09784
300.09973
300.13328
300.13985
300.14759
300.15781
300.162
300.15142
300.1434
300.13658
300.10171
300.10375
300.14006
300.14715
300.15548
300.16646
300.17123
300.15981
300.15114
300.14375
300.10586
300.10805
300.14767
300.15538
300.16442
300.17633
300.18181
300.16937
300.15992
300.15184
300.1103
300.11263
300.15628
300.16477
300.17468
300.18772
300.19412
300.18041
300.16998
300.16105
300.11503
300.11751
300.16616
300.1756
300.1866
300.20107
300.20864
300.19332
300.18167
300.17167
300.12006
300.12268
300.17761
300.18825
300.20063
300.21691
300.22598
300.20861
300.1954
300.18404
300.12536
300.12808
300.191
300.20318
300.21733
300.23593
300.24689
300.22688
300.21166
300.19856
300.13083
300.13355
300.20675
300.22091
300.23734
300.25896
300.27226
300.24881
300.23098
300.21563
300.13622
300.13874
300.22522
300.24194
300.26135
300.28688
300.30289
300.275
300.2538
300.23553
300.14104
300.14297
300.24651
300.26653
300.28974
300.3203
300.33899
300.30548
300.28001
300.25803
300.14436
300.14496
300.26982
300.29397
300.32192
300.35866
300.37871
300.33853
300.30791
300.28143
300.14442
300.14225
300.29202
300.32096
300.35436
300.3981
300.4151
300.3679
300.33175
300.30034
300.13773
300.12997
300.30459
300.3383
300.37696
300.42717
300.42988
300.37779
300.33726
300.30172
300.11732
300.097
300.28673
300.32303
300.36382
300.4152
300.37404
300.33012
300.29268
300.25747
300.06788
300.03361
300.21176
300.2429
300.27193
300.29562
300.12535
300.12469
300.10683
300.08497
299.9559
299.75025
299.7503
299.75111
299.75201
299.74821
299.51147
299.50725
299.51273
299.52359
299.60091
299.62244
299.64384
299.64787
299.65572
299.67026
299.58853
299.58451
299.584
299.58705
299.59693
299.56689
299.51066
299.49683
299.4863
299.49315
299.59889
299.51509
299.4917
299.46997
299.44793
299.7612
299.75116
299.73248
299.71633
299.6462
299.66798
299.69592
299.69858
299.69799
299.68203
299.80263
299.78527
299.76799
299.75385
299.66939
299.67118
299.75846
299.77296
299.79329
299.83032
299.63558
299.61062
299.60489
299.60623
299.61469
299.60601
299.53114
299.52059
299.51486
299.51734
299.81254
299.81806
299.81509
299.81072
299.78849
299.97041
300.10765
300.12997
300.14746
300.14606
300.30326
300.28027
300.25179
300.22105
300.0401
300.07122
300.26203
300.29658
300.33311
300.37548
300.4125
300.36334
300.32398
300.28883
300.10066
300.12162
300.30241
300.33639
300.37501
300.42444
300.42051
300.37325
300.3367
300.30471
300.13451
300.14252
300.30051
300.33019
300.36421
300.4084
300.39215
300.35132
300.31997
300.29266
300.14725
300.14953
300.28275
300.30776
300.33652
300.37402
300.35545
300.3211
300.29478
300.27191
300.15005
300.14933
300.26082
300.28174
300.30583
300.33728
300.32
300.29116
300.26907
300.2499
300.14774
300.14556
300.23941
300.25701
300.27731
300.30381
300.28881
300.26438
300.24567
300.22945
300.14301
300.14022
300.2201
300.23509
300.25239
300.27498
300.2623
300.24133
300.22527
300.21136
300.13731
300.13435
300.20324
300.21618
300.23114
300.25068
300.24004
300.22177
300.20778
300.1957
300.13139
300.12847
300.18869
300.20002
300.21314
300.23028
300.22134
300.2052
300.19284
300.18219
300.12561
300.12283
300.17615
300.1862
300.19787
300.21312
300.20555
300.1911
300.18004
300.17053
300.12013
300.11751
300.16529
300.17432
300.18482
300.19856
300.1921
300.179
300.16899
300.1604
300.11498
300.11254
300.15582
300.16401
300.17357
300.18609
300.18052
300.16852
300.15936
300.15152
300.11019
300.10791
300.14747
300.15499
300.16378
300.1753
300.17043
300.15934
300.15088
300.14366
300.10572
300.10359
300.14005
300.147
300.15515
300.16585
300.16155
300.15121
300.14333
300.13664
300.10155
300.09961
300.13341
300.13988
300.14749
300.15749
300.16802
300.15709
300.14863
300.14141
300.0983
300.10022
300.14505
300.15255
300.16133
300.17267
300.17764
300.16585
300.15673
300.14893
300.10222
300.10429
300.15305
300.16119
300.17068
300.18295
300.18865
300.17585
300.16594
300.15744
300.10644
300.10866
300.16212
300.17103
300.18139
300.19478
300.20139
300.18736
300.17649
300.16714
300.11097
300.11335
300.17252
300.18236
300.19379
300.20854
300.2163
300.20074
300.18869
300.17831
300.11581
300.11836
300.18455
300.19553
300.20827
300.22471
300.23387
300.21643
300.20293
300.19128
300.12099
300.1237
300.19855
300.21095
300.22531
300.24385
300.25474
300.23496
300.21965
300.20642
300.12647
300.12929
300.21492
300.22909
300.24547
300.26662
300.27958
300.25689
300.23933
300.22412
300.13214
300.13497
300.23403
300.25041
300.2693
300.29369
300.30903
300.28273
300.26236
300.2447
300.13774
300.14038
300.25611
300.27521
300.29722
300.32562
300.34345
300.31274
300.28892
300.26822
300.14276
300.14476
300.28092
300.30338
300.32918
300.36243
300.38232
300.34635
300.3184
300.29402
300.14617
300.1467
300.30716
300.3336
300.36386
300.40272
300.42291
300.38106
300.3484
300.31979
300.14599
300.14351
300.33104
300.36185
300.39689
300.44165
300.45657
300.40978
300.37261
300.33966
300.13859
300.13043
300.34387
300.37877
300.41785
300.46575
300.46842
300.41741
300.37664
300.34017
300.1171
300.09559
300.32337
300.36021
300.40042
300.44844
300.40565
300.36468
300.32782
300.2922
300.06567
300.03194
300.24468
300.27651
300.306
300.32998
300.17664
300.17063
300.14949
300.12457
299.95576
299.77559
299.82952
299.83897
299.84894
299.85476
299.57576
299.56613
299.56743
299.57374
299.63154
299.61868
299.59818
299.59805
299.60635
299.6331
299.60925
299.58464
299.58179
299.58515
299.60696
299.62356
299.69772
299.70901
299.72381
299.75025
299.45666
299.47308
299.48722
299.50284
299.58901
299.61102
299.59229
299.59104
299.59241
299.59865
299.60043
299.5964
299.59766
299.60213
299.62878
299.74565
299.73881
299.7382
299.73656
299.72924
300.12968
300.12856
300.10883
300.08596
299.95364
300.03529
300.2217
300.25434
300.28445
300.30796
300.38833
300.34391
300.30538
300.2688
300.07038
300.09955
300.29779
300.33547
300.37759
300.43017
300.44463
300.39104
300.34909
300.31221
300.11998
300.13268
300.31434
300.34927
300.38927
300.44103
300.42777
300.37911
300.34176
300.30926
300.14045
300.14495
300.30012
300.33001
300.36446
300.4095
300.38889
300.34757
300.31603
300.28873
300.14707
300.14753
300.2764
300.30124
300.32998
300.3677
300.34701
300.31266
300.28651
300.26393
300.14683
300.14533
300.25181
300.27235
300.29614
300.32741
300.3092
300.28069
300.259
300.24029
300.14326
300.14083
300.22949
300.24658
300.26641
300.29247
300.27722
300.25332
300.23513
300.21945
300.13818
300.13539
300.21018
300.22461
300.24136
300.26336
300.25081
300.23047
300.21498
300.20164
300.13254
300.12967
300.19379
300.20617
300.22054
300.23942
300.2291
300.21149
300.19809
300.18655
300.12684
300.12406
300.17988
300.19067
300.20322
300.21971
300.21116
300.19566
300.18386
300.17372
300.12134
300.1187
300.16803
300.17758
300.18871
300.20334
300.19617
300.18232
300.17178
300.16275
300.11613
300.11365
300.15784
300.16641
300.17642
300.18958
300.1835
300.17096
300.16142
300.15326
300.11126
300.10894
300.14897
300.15676
300.16587
300.17787
300.17264
300.16114
300.15241
300.14495
300.1067
300.10454
300.14118
300.14832
300.15671
300.16776
300.1632
300.15256
300.14448
300.13761
300.10245
300.10043
300.13425
300.14086
300.14865
300.15892
300.15489
300.14496
300.13743
300.13105
300.09848
300.09781
300.12995
300.13625
300.14368
300.1535
300.15739
300.14724
300.13956
300.13303
300.09969
300.10165
300.13629
300.14305
300.15101
300.16151
300.16588
300.155
300.14674
300.13971
300.10368
300.10578
300.14334
300.15066
300.15924
300.17054
300.17552
300.16375
300.15481
300.14718
300.10795
300.11019
300.15126
300.15924
300.16857
300.18085
300.18659
300.17374
300.16397
300.15561
300.1125
300.11488
300.16025
300.16904
300.1793
300.19278
300.19948
300.18528
300.17448
300.16521
300.11734
300.11986
300.17055
300.18035
300.19176
300.20675
300.21467
300.19878
300.18669
300.17629
300.12245
300.1251
300.18247
300.19355
300.20641
300.22331
300.23277
300.21472
300.20099
300.18914
300.12778
300.13047
300.19636
300.20906
300.22379
300.24313
300.25451
300.23369
300.21783
300.20415
300.13314
300.13574
300.21256
300.22736
300.2445
300.267
300.28069
300.25627
300.23768
300.22161
300.1382
300.14041
300.23131
300.24881
300.26906
300.29564
300.31185
300.28283
300.26072
300.2416
300.14224
300.14352
300.25235
300.27329
300.29748
300.32922
300.34749
300.31276
300.28628
300.26332
300.14399
300.1433
300.27407
300.29922
300.32819
300.36611
300.38413
300.3429
300.31132
300.28385
300.14096
300.13626
300.29148
300.32129
300.35548
300.39997
300.41129
300.36389
300.32728
300.29523
300.12835
300.11561
300.29217
300.32605
300.36458
300.41402
300.40084
300.35138
300.31226
300.27746
300.09505
300.06534
300.24897
300.28308
300.31953
300.3633
300.29219
300.26626
300.2371
300.2061
300.02934
299.95227
300.09081
300.11486
300.13554
300.1377
299.78043
299.78028
299.77611
299.77186
299.75405
299.57721
299.4991
299.4876
299.48132
299.48505
299.71674
299.69903
299.68695
299.67834
299.62943
299.63818
299.68108
299.68737
299.69525
299.69891
299.69616
299.74521
299.70185
299.58225
299.49806
299.48711
299.4822
299.48931
299.69057
299.65445
299.64277
299.63961
299.61512
299.51563
299.51659
299.52521
299.53994
299.59973
299.639
299.62827
299.6243
299.61932
299.60855
299.61521
299.63586
299.64167
299.64324
299.63851
299.64769
299.729
299.75091
299.78381
299.83863
299.69182
299.68812
299.75247
299.73618
299.99337
299.99514
299.98895
299.99333
299.99022
299.98736
299.98878
299.99078
300.15724
300.14724
300.13963
300.13317
300.09937
300.10133
300.13641
300.1431
300.15097
300.16131
300.16562
300.15492
300.14677
300.13983
300.10339
300.10553
300.14344
300.15065
300.1591
300.17018
300.17504
300.16353
300.15475
300.14724
300.10773
300.11001
300.15127
300.15909
300.16823
300.1802
300.18573
300.17325
300.16371
300.15554
300.11237
300.11481
300.16007
300.16863
300.1786
300.19165
300.19801
300.18435
300.1739
300.16491
300.11734
300.11995
300.17008
300.17953
300.19052
300.20488
300.2123
300.19717
300.18559
300.17561
300.12265
300.12542
300.18154
300.1921
300.20435
300.22033
300.22907
300.21211
300.19913
300.18791
300.12827
300.13117
300.19476
300.20671
300.22053
300.23856
300.24891
300.22965
300.2149
300.20212
300.1341
300.13704
300.21003
300.22373
300.23954
300.26017
300.27243
300.25025
300.23325
300.21851
300.13993
300.14269
300.22756
300.24347
300.26182
300.28575
300.30016
300.27426
300.2544
300.23716
300.14521
300.14735
300.24725
300.26597
300.28753
300.31564
300.3321
300.30151
300.27806
300.25767
300.14891
300.1496
300.26818
300.29042
300.31598
300.34928
300.36671
300.33046
300.30262
300.27836
300.14905
300.14677
300.2875
300.3139
300.34416
300.38349
300.39817
300.35576
300.32305
300.29446
300.14208
300.13418
300.29761
300.32829
300.36329
300.40848
300.41035
300.36325
300.32644
300.29403
300.12135
300.10042
300.27902
300.31234
300.3496
300.39616
300.35778
300.31897
300.28476
300.25218
300.07205
300.04114
300.21159
300.24038
300.26623
300.28411
300.11225
300.11531
300.10018
300.08047
299.95952
299.76492
299.76332
299.76261
299.76029
299.75174
299.64173
299.63726
299.63626
299.63816
299.65246
299.61232
299.59625
299.59451
299.59877
299.6141
299.64203
299.59422
299.58647
299.59006
299.60397
299.73465
299.74543
299.75466
299.73295
299.91626
299.93549
299.90365
299.87027
299.6596
299.64485
299.67207
299.68059
299.69053
299.69208
299.95447
299.91258
299.87618
299.84334
299.69879
299.72016
299.90564
299.93509
299.96513
299.99856
299.64333
299.59558
299.58781
299.59137
299.60497
299.61358
299.59737
299.59556
299.59968
299.61461
299.64242
299.63819
299.63734
299.63931
299.65382
299.76625
299.76459
299.76384
299.76144
299.75274
300.1135
300.11661
300.10153
300.08184
299.96089
300.0425
300.21304
300.24182
300.26765
300.28549
300.35925
300.32046
300.28624
300.25364
300.07328
300.10162
300.28048
300.31383
300.35111
300.39768
300.4119
300.36478
300.32794
300.29548
300.12254
300.13535
300.29908
300.3298
300.36484
300.41006
300.39976
300.35731
300.32455
300.29591
300.14322
300.14788
300.28893
300.31538
300.3457
300.38508
300.36829
300.33198
300.30408
300.27977
300.15012
300.15063
300.26955
300.29184
300.31746
300.35083
300.33361
300.30296
300.27944
300.25899
300.14991
300.14832
300.24852
300.2673
300.28892
300.3171
300.30157
300.2756
300.25569
300.23839
300.14613
300.14357
300.22875
300.24471
300.26311
300.2871
300.27373
300.25149
300.23443
300.21964
300.14077
300.13785
300.21111
300.22486
300.24072
300.26141
300.25009
300.23078
300.21597
300.20315
300.13488
300.13191
300.19574
300.20773
300.2216
300.23969
300.23014
300.21313
300.2001
300.18884
300.12897
300.12609
300.18243
300.19303
300.20531
300.22135
300.21326
300.19808
300.18646
300.17645
300.12328
300.12056
300.17087
300.18036
300.19138
300.20578
300.19888
300.18517
300.17468
300.16566
300.11792
300.11536
300.16079
300.16938
300.17938
300.19246
300.18651
300.17399
300.16442
300.15622
300.11289
300.11051
300.15192
300.15977
300.16894
300.18095
300.17575
300.16421
300.1554
300.14787
300.10821
300.10598
300.14404
300.15128
300.15976
300.17087
300.16629
300.15556
300.14739
300.14042
300.10383
300.10175
300.13698
300.1437
300.1516
300.16196
300.15789
300.14786
300.14021
300.13372
300.09975
300.09785
300.13069
300.13698
300.14438
300.15411
300.09766
300.13003
300.13638
300.14387
300.15376
300.15777
300.14754
300.13979
300.13321
300.09958
300.10159
300.13656
300.14339
300.15143
300.16203
300.16657
300.15556
300.14722
300.14011
300.10367
300.10581
300.14386
300.15127
300.15996
300.17142
300.17662
300.16467
300.1556
300.14785
300.10803
300.11032
300.1521
300.16022
300.16971
300.1822
300.18824
300.17513
300.16517
300.15664
300.11269
300.11513
300.1615
300.17049
300.18098
300.19476
300.20186
300.1873
300.17623
300.16673
300.11766
300.12025
300.17236
300.18244
300.19417
300.2096
300.21806
300.20166
300.18917
300.17844
300.12292
300.12565
300.18502
300.19649
300.20982
300.22734
300.23754
300.21876
300.20447
300.19216
300.12843
300.13122
300.19991
300.21317
300.22856
300.24878
300.26118
300.23931
300.22267
300.20833
300.134
300.13672
300.21746
300.23303
300.2511
300.27484
300.28989
300.264
300.24431
300.22733
300.13929
300.14163
300.23796
300.25654
300.27807
300.30638
300.32432
300.29328
300.26967
300.24929
300.14359
300.145
300.2612
300.2836
300.30953
300.34362
300.36397
300.32656
300.29806
300.27342
300.14559
300.14501
300.28549
300.31255
300.34381
300.38478
300.40495
300.36033
300.32619
300.29658
300.14277
300.13815
300.30539
300.33756
300.37455
300.42271
300.43538
300.38421
300.34465
300.31009
300.13025
300.11745
300.30753
300.34397
300.38539
300.43829
300.42304
300.37127
300.32976
300.29261
300.09689
300.0676
300.263
300.29896
300.33679
300.38031
300.29896
300.2764
300.24708
300.21515
300.03205
299.95026
300.07854
300.10056
300.1193
300.11943
299.71637
299.72564
299.72849
299.7301
299.74183
299.62261
299.59025
299.58455
299.5818
299.58405
299.5838
299.58001
299.58033
299.58274
299.60662
299.58368
299.49283
299.47621
299.46086
299.44057
299.72374
299.70194
299.6901
299.68101
299.61585
299.60118
299.56716
299.56172
299.56188
299.58256
299.79301
299.75996
299.7438
299.73276
299.66148
299.67261
299.78821
299.80767
299.83338
299.86927
299.7627
299.74174
299.72887
299.71908
299.64753
299.63633
299.67665
299.68245
299.68981
299.6927
299.60647
299.59911
299.59643
299.59766
299.59896
299.5848
299.51161
299.50239
299.49928
299.50883
299.71216
299.67254
299.658
299.6525
299.61821
299.62297
299.61399
299.61537
299.62416
299.65058
299.65818
299.64669
299.64238
299.6428
299.65374
299.76359
299.76599
299.76643
299.7663
299.76333
300.12348
300.12458
300.10752
300.08658
299.96054
300.042
300.21636
300.24588
300.27229
300.29167
300.36318
300.32338
300.28853
300.25545
300.07284
300.10144
300.28181
300.31548
300.3532
300.4004
300.41371
300.36619
300.32907
300.2964
300.12243
300.13525
300.29963
300.33049
300.3657
300.41117
300.40041
300.3578
300.32495
300.29622
300.14311
300.14775
300.28909
300.3156
300.34598
300.38545
300.3685
300.33213
300.30418
300.27983
300.14996
300.15043
300.26955
300.29188
300.31753
300.35095
300.33367
300.30297
300.27942
300.25894
300.14967
300.14805
300.24844
300.26725
300.28889
300.31712
300.30156
300.27554
300.2556
300.23827
300.14585
300.14328
300.2286
300.24459
300.26302
300.28706
300.27367
300.25138
300.23429
300.21948
300.14047
300.13755
300.21094
300.2247
300.24059
300.26132
300.24998
300.23063
300.2158
300.20296
300.13457
300.1316
300.19553
300.20754
300.22143
300.23956
300.22999
300.21295
300.1999
300.18863
300.12867
300.1258
300.1822
300.19282
300.20512
300.22118
300.21308
300.19788
300.18625
300.17622
300.123
300.12028
300.17064
300.18014
300.19117
300.2056
300.19868
300.18495
300.17446
300.16543
300.11764
300.1151
300.16055
300.16915
300.17916
300.19226
300.18629
300.17376
300.16419
300.15598
300.11264
300.11026
300.15168
300.15954
300.16871
300.18072
300.17553
300.16398
300.15517
300.14763
300.10796
300.10575
300.14381
300.15105
300.15953
300.17065
300.16606
300.15533
300.14715
300.14018
300.1036
300.10153
300.13674
300.14346
300.15136
300.16173
300.15765
300.1476
300.13996
300.13347
300.09952
300.0976
300.13037
300.13664
300.14404
300.15377
300.09935
300.13314
300.1396
300.14721
300.15721
300.16128
300.15094
300.14307
300.13637
300.10131
300.10336
300.13979
300.14673
300.15488
300.16557
300.17012
300.15904
300.15059
300.14338
300.10548
300.10768
300.14717
300.15467
300.16345
300.17495
300.18011
300.16814
300.159
300.15118
300.10995
300.1123
300.15544
300.16361
300.17313
300.18561
300.19151
300.17848
300.16851
300.15996
300.11473
300.11725
300.16478
300.17376
300.1842
300.19786
300.20469
300.19035
300.17937
300.16993
300.11985
300.12254
300.17544
300.1854
300.19697
300.21208
300.22008
300.20411
300.19189
300.18134
300.1253
300.12813
300.18768
300.19888
300.21184
300.22876
300.2382
300.2202
300.20642
300.19449
300.13102
300.13395
300.20181
300.21455
300.22927
300.24847
300.25965
300.23909
300.22333
300.20967
300.13687
300.13975
300.21809
300.23278
300.24971
300.27181
300.285
300.26118
300.24292
300.22707
300.1425
300.14503
300.23658
300.25374
300.27349
300.29925
300.31455
300.28661
300.26518
300.24656
300.14717
300.14873
300.25687
300.27713
300.30042
300.33077
300.34769
300.31467
300.28931
300.26723
300.14943
300.14889
300.27725
300.3013
300.3289
300.36481
300.38127
300.34234
300.31236
300.28619
300.14661
300.14189
300.29296
300.32129
300.35368
300.39564
300.40571
300.361
300.32635
300.29595
300.13394
300.12106
300.29225
300.32437
300.36082
300.40742
300.39313
300.34701
300.31011
300.27708
300.09998
300.07126
300.25001
300.28232
300.31621
300.35476
300.28193
300.26396
300.23845
300.20978
300.0399
299.95837
300.07954
300.09945
300.11512
300.11218
299.74981
299.75543
299.75712
299.75793
299.76153
299.65128
299.63304
299.63116
299.63378
299.64334
299.63271
299.60936
299.60264
299.60289
299.61949
299.62994
299.60707
299.60488
299.6063
299.61679
299.6283
299.61993
299.61814
299.61994
299.64395
299.76751
299.80684
299.81394
299.82162
299.8259
300.16775
300.1609
300.14039
300.11612
299.95213
300.03143
300.24526
300.2775
300.30767
300.33107
300.40781
300.36617
300.32869
300.29266
300.06469
300.09441
300.3236
300.36085
300.40178
300.45112
300.47139
300.41903
300.37754
300.34064
300.11607
300.12934
300.34443
300.37975
300.41949
300.46857
300.45917
300.41133
300.37355
300.3402
300.13744
300.14229
300.3315
300.36269
300.39827
300.44394
300.42489
300.38225
300.3491
300.32014
300.14472
300.14541
300.30739
300.33414
300.36483
300.40438
300.38368
300.34711
300.31876
300.29411
300.14487
300.14349
300.28089
300.30359
300.32973
300.3635
300.34427
300.3131
300.28899
300.26807
300.14153
300.13918
300.25587
300.27516
300.29742
300.32621
300.30943
300.2828
300.26222
300.24439
300.1366
300.13389
300.23367
300.25018
300.26925
300.29393
300.27969
300.25676
300.23904
300.22371
300.13111
300.12833
300.21449
300.22876
300.24527
300.26662
300.25467
300.23472
300.21929
300.20597
300.12556
300.12285
300.1981
300.21057
300.22502
300.24371
300.23369
300.21612
300.20254
300.19082
300.1202
300.11761
300.1841
300.19513
300.20794
300.22449
300.21605
300.2004
300.18829
300.17786
300.11511
300.11268
300.17208
300.18196
300.19344
300.20828
300.20111
300.18701
300.17609
300.16671
300.11034
300.10807
300.1617
300.17063
300.18104
300.19448
300.18834
300.17549
300.16554
300.15702
300.10587
300.10375
300.15263
300.16079
300.17031
300.18263
300.1773
300.16548
300.15634
300.14851
300.1017
300.09971
300.14463
300.15215
300.16095
300.17232
300.16766
300.15669
300.14821
300.14098
300.09782
300.09785
300.14091
300.14813
300.15658
300.16751
300.17218
300.16084
300.15207
300.14457
300.09976
300.10177
300.14846
300.15626
300.16537
300.17715
300.18246
300.1702
300.16071
300.15258
300.10385
300.106
300.15696
300.16546
300.17536
300.18815
300.19427
300.18089
300.17053
300.16164
300.10822
300.11051
300.16664
300.17597
300.18683
300.20085
300.20797
300.19323
300.18182
300.172
300.11289
300.11534
300.17776
300.18812
300.20015
300.21568
300.22405
300.20763
300.19492
300.18396
300.11788
300.12049
300.19065
300.20228
300.21575
300.23316
300.24308
300.22457
300.21025
300.19787
300.12318
300.12592
300.20569
300.21889
300.23416
300.2539
300.26571
300.2446
300.22826
300.21413
300.12872
300.13154
300.22327
300.23843
300.25596
300.27859
300.29264
300.26829
300.24945
300.23312
300.13434
300.13708
300.24372
300.26134
300.28166
300.30791
300.32445
300.29609
300.27413
300.25507
300.13968
300.14203
300.26713
300.28779
300.31156
300.34225
300.36123
300.32799
300.30222
300.2798
300.14399
300.14535
300.29289
300.31724
300.34518
300.38117
300.4017
300.36276
300.33249
300.30606
300.14585
300.14511
300.31878
300.3474
300.38013
300.42215
300.44138
300.39628
300.36108
300.3302
300.14259
300.13763
300.3391
300.3722
300.40969
300.45726
300.46738
300.41843
300.37888
300.34372
300.12945
300.11608
300.34067
300.37754
300.41901
300.47129
300.45409
300.4037
300.3623
300.32478
300.09443
300.065
300.29557
300.33222
300.3708
300.41483
300.34331
300.31575
300.28392
300.25071
300.03245
299.95444
300.12922
300.15538
300.17831
300.18913
299.87104
299.86395
299.85174
299.8402
299.77506
299.64891
299.62535
299.62319
299.62428
299.62925
299.62843
299.60534
299.60012
299.60196
299.61644
299.57694
299.53957
299.53435
299.5349
299.55086
299.54073
299.53139
299.53513
299.54228