/*--------------------------------*- C++ -*----------------------------------*\
  =========                 |
  \\      /  F ield         | OpenFOAM: The Open Source CFD Toolbox
   \\    /   O peration     | Website:  https://openfoam.org
    \\  /    A nd           | Version:  7
     \\/     M anipulation  |
\*---------------------------------------------------------------------------*/
FoamFile
{
    version     2.0;
    format      ascii;
    class       volScalarField;
    location    "260";
    object      alphat;
}
// * * * * * * * * * * * * * * * * * * * * * * * * * * * * * * * * * * * * * //

dimensions      [1 -1 -1 0 0 0 0];

internalField   nonuniform List<scalar> 
25201
(
8.0013995
7.9927131
8.001423
7.9927656
7.891573
7.9647045
7.9782611
8.0201876
8.0096631
7.9509392
8.0096275
7.9646596
7.9298735
7.4055935
7.290953
7.818258
7.7340134
7.6569274
7.6227858
7.3895504
7.5556904
7.554913
7.6249774
7.5089526
7.5004944
7.3437967
7.4430986
7.6522274
7.5899663
7.3690622
7.4194811
7.485831
7.0976416
7.1769237
7.2766162
7.2912593
7.4804245
7.4118474
7.1933872
7.1124354
7.3584646
7.3290103
7.3392091
7.0545999
7.0707705
7.1074921
7.342042
7.6406808
7.8781422
7.9299095
7.9807824
7.9350015
7.784147
7.8497905
7.9127089
7.879019
7.852186
7.7751133
7.8090215
7.5811943
7.6130902
7.7039873
7.734148
7.786527
7.8161483
7.9407108
7.8787759
7.6729321
7.6255771
7.4419837
7.3946571
7.4540666
7.6980289
7.7393166
7.6842958
7.2660847
7.325514
7.4005098
7.42742
7.4898897
7.5718281
7.6378705
7.5344087
7.5415958
7.4669658
7.5603907
7.4356949
7.4052788
7.2938681
7.3563456
7.2723995
7.2220411
7.2156237
7.2268481
7.2181755
7.2872049
7.2874536
7.2190516
7.0904948
7.1781186
7.1805634
7.0984397
7.1098519
7.1920678
7.1927577
7.1255153
6.9711461
7.0698245
7.1275409
7.1192001
7.0516956
7.0579437
6.9522459
6.9417211
6.7755354
6.9026225
6.9075456
6.7870361
6.7993488
6.9610495
7.0666003
6.9229924
6.9269375
6.809772
6.6272171
6.7795796
6.889537
7.1268206
7.3559765
7.1931811
7.1123336
7.0705009
7.1078862
7.1460243
7.2288501
7.3183402
7.4360652
7.534517
7.7040082
7.8522522
7.8791128
7.7341048
7.5812467
7.6130552
7.7751947
7.8091061
7.8497525
7.9126837
7.9807254
7.9407204
7.816124
7.7862393
7.6257972
7.6726159
7.8786004
7.8158754
7.9349093
7.8779894
7.6982
7.7395008
7.3949254
7.4539354
7.5605126
7.5717347
7.6378286
7.4897414
7.4272815
7.4004599
7.2635112
7.3387051
7.4669691
7.5416809
7.4063586
7.4952385
7.5444844
7.4324002
7.4057975
7.387863
7.1666346
7.1847417
6.9735717
7.0427899
7.071525
6.9704475
6.9596891
6.8468002
6.9445108
6.9443551
6.8242946
6.6425832
6.7978336
6.9228925
7.1660624
7.387887
7.222204
7.2717582
7.2923439
6.7983964
6.9221302
7.0661134
7.191219
7.1928358
7.12572
7.21548
7.2257649
7.1083527
6.9607508
6.9710091
7.0695714
6.9269294
6.8097952
6.6272505
6.7792654
6.7708722
6.7539227
6.8692145
7.9926566
8.0012292
7.8772111
7.6524312
7.5898829
7.3395878
7.1772785
7.4193343
7.3690385
7.3589271
7.328738
7.0706926
7.0538698
7.0972319
7.1124364
7.1934793
7.4116933
7.4806716
7.4855701
7.27663
7.2911017
7.4055604
7.5547402
7.7339535
0.0013405222
0.0065632285
0.015915696
0.027419526
0.36357945
0.37076612
0.028400397
0.016457392
0.0067804648
0.0013777549
0.0013955698
0.0069619648
0.016911199
0.029155759
0.37874662
0.38334802
0.02941544
0.017073313
0.0070315172
0.0014041968
0.0014069723
0.0070544215
0.017122655
0.029478945
0.38609795
0.38776609
0.029484596
0.01713365
0.0070611324
0.0014081653
0.001409014
0.0070684257
0.017148631
0.029499451
0.3888832
0.3897482
0.029528365
0.017167543
0.0070762419
0.0014098008
0.0014106738
0.0070869855
0.017194167
0.029569733
0.39045902
0.39112782
0.029614774
0.017220273
0.0070969771
0.001411467
0.0014123319
0.007108744
0.017250207
0.029663586
0.39172607
0.39232007
0.029710772
0.017277317
0.0071190815
0.0014130985
0.0014139459
0.007131109
0.017307945
0.029760967
0.39288536
0.39345977
0.029809025
0.017335619
0.0071416991
0.0014147034
0.0014155546
0.0071540731
0.017366988
0.029860309
0.39401338
0.39458707
0.02991044
0.017396006
0.0071652384
0.0014163323
0.0014172148
0.0071783108
0.017429041
0.029964374
0.39515331
0.39575266
0.03001835
0.01746039
0.0071904069
0.0014180397
0.0014189759
0.0072044373
0.017495744
0.030076071
0.3963517
0.39698911
0.030135094
0.017530132
0.0072177461
0.0014198715
0.001420883
0.0072329965
0.01756841
0.030197523
0.39763822
0.39833562
0.030262418
0.017606466
0.007247812
0.001421868
0.0014229734
0.007264679
0.017648758
0.030331512
0.39905274
0.39982363
0.030403476
0.017691154
0.007281252
0.0014240615
0.0014252773
0.0072999821
0.017738112
0.030480362
0.40062453
0.40148218
0.03056064
0.01778561
0.0073186157
0.0014264889
0.0014278367
0.0073394555
0.017837823
0.030646268
0.40237438
0.40332775
0.030736304
0.017891247
0.0073604618
0.0014292034
0.0014307172
0.007383684
0.017949363
0.030831629
0.40432791
0.40540145
0.030933677
0.018009994
0.0074074875
0.0014322659
0.0014339227
0.0074329606
0.018073226
0.031036932
0.40652233
0.40768683
0.031145025
0.018137966
0.0074586891
0.0014356265
0.45728309
0.028099648
0.016517835
0.0068674865
0.0013764306
0.0013749266
0.0068444796
0.016460094
0.028003972
0.45599498
0.45472429
0.027909307
0.016401813
0.0068209443
0.0013734425
0.0013720212
0.0067983907
0.016344379
0.027813672
0.45349435
0.45234719
0.027725928
0.016290398
0.0067767631
0.0013706329
0.001369361
0.0067569251
0.016239594
0.027640807
0.45126805
0.45026735
0.027563256
0.016191731
0.0067376809
0.0013681249
0.0013669937
0.0067201329
0.016146638
0.02748749
0.44931612
0.44843435
0.027418964
0.016104226
0.0067030654
0.0013658841
0.0013648773
0.0066877126
0.016064552
0.027351925
0.4475964
0.44681652
0.027291966
0.016027337
0.0066727044
0.0013638848
0.0013629818
0.0066590512
0.015991844
0.027231608
0.44605447
0.44533283
0.027176991
0.015957877
0.0066453559
0.0013620728
0.0013612449
0.0066329512
0.015925396
0.027121432
0.44462686
0.44395037
0.02707147
0.01589427
0.0066204064
0.0013604012
0.0013596295
0.0066089846
0.015864073
0.027019319
0.44326246
0.44264477
0.026974749
0.015835998
0.0065975863
0.0013588443
0.0013581195
0.006587074
0.01580798
0.026925986
0.44199886
0.44137917
0.026882749
0.015780897
0.0065761474
0.0013573559
0.0013566409
0.0065660249
0.015753751
0.026835304
0.44072282
0.44007404
0.026792069
0.015726791
0.0065552105
0.0013558688
0.0013551366
0.0065452518
0.015700084
0.026745482
0.43940089
0.43871945
0.02670335
0.015673667
0.0065346357
0.0013543421
0.0013535842
0.006525062
0.015648162
0.026659406
0.4379884
0.43719948
0.026623941
0.015624738
0.0065153668
0.0013527762
0.0013520072
0.0065076645
0.015605393
0.026593625
0.43623847
0.43507944
0.026582753
0.01559268
0.0065010149
0.0013511832
0.0013499709
0.006494162
0.015579944
0.026572395
0.43336216
0.43061261
0.026518582
0.01553603
0.0064727729
0.0013471155
0.0013393079
0.0064113341
0.01539073
0.02628849
0.42596642
0.41895718
0.025740127
0.015062346
0.0062759202
0.0013225936
0.0012978865
0.0060595338
0.014546522
0.024865422
0.41043514
0.38529054
0.022299634
0.012900168
0.0053791335
0.0012484803
0.0012961431
0.006071114
0.014575636
0.024907717
0.41123733
0.41977345
0.025772627
0.015083064
0.0062843342
0.0013216218
0.0013389219
0.0064199771
0.015411794
0.026322114
0.42664576
0.4311322
0.026541291
0.015550413
0.0064789735
0.0013468769
0.0013498594
0.0064993472
0.015592734
0.026593599
0.4338341
0.43547902
0.026596156
0.015600962
0.0065046499
0.0013511018
0.0013519723
0.0065109778
0.015613842
0.026608337
0.43661168
0.43750126
0.026632916
0.015629937
0.0065176283
0.0013527365
0.0013535625
0.0065270906
0.015653469
0.026669133
0.4382639
0.43898016
0.026708509
0.015676419
0.0065358975
0.0013543075
0.0013551152
0.0065464746
0.015703445
0.026752211
0.43963095
0.44027707
0.026794302
0.015727763
0.00655577
0.0013558323
0.001356621
0.0065666922
0.015755659
0.026839576
0.44090003
0.44153319
0.026883008
0.015780826
0.0065763473
0.0013573291
0.0013581203
0.0065876992
0.015809729
0.02692988
0.44215135
0.44278763
0.026975381
0.015836224
0.0065979099
0.001358843
0.0013596578
0.006609906
0.015866659
0.027024699
0.4434208
0.44408067
0.027073362
0.01589515
0.0066209383
0.001360417
0.0013612775
0.0066338557
0.015927832
0.027126312
0.44474714
0.44544971
0.027179402
0.015959081
0.0066460037
0.0013620939
0.001363016
0.0066600754
0.01599459
0.027236931
0.44616696
0.44692936
0.027295641
0.016029233
0.0066735778
0.0013639057
0.0013649036
0.006688927
0.016067834
0.027358192
0.44772784
0.44856754
0.02742278
0.016106225
0.0067039712
0.0013658905
0.0013670042
0.0067212075
0.016149596
0.02749324
0.44945316
0.4504068
0.027566531
0.016193372
0.0067384161
0.0013681205
0.0013693673
0.0067578139
0.016242069
0.027645719
0.45141284
0.45249663
0.027728865
0.016291841
0.0067774132
0.0013706372
0.0013720487
0.0067992518
0.016346638
0.027818009
0.4536447
0.45487817
0.027912711
0.01640385
0.0068219303
0.0013734952
0.0013750489
0.0068465537
0.016464887
0.02801125
0.45615371
0.45748996
0.028114881
0.016527208
0.0068711235
0.0013766285
0.0013782687
0.0068958656
0.01658896
0.028216149
0.4589116
0.0014267304
0.0073681568
0.01787561
0.030636468
0.40859101
0.40731102
0.030525172
0.01780861
0.0073413608
0.001424957
0.0014232253
0.0073144449
0.017740507
0.030411326
0.40606854
0.40490225
0.030305799
0.01767601
0.0072884721
0.0014215527
0.001419982
0.0072641148
0.017614067
0.030202002
0.40378786
0.40275774
0.03010697
0.017555939
0.0072407542
0.0014184545
0.0014170531
0.0072193349
0.017501167
0.030014682
0.4017793
0.40087281
0.029930841
0.017449758
0.0071986239
0.001415694
0.0014144527
0.0071796918
0.017401052
0.029848298
0.3999954
0.39921522
0.029775578
0.017356191
0.0071615484
0.0014132519
0.0014121619
0.0071449492
0.017313194
0.029702232
0.39844754
0.39773675
0.029636543
0.017272712
0.0071286134
0.0014110854
0.0014101089
0.0071137815
0.017234095
0.029570393
0.39704147
0.39638927
0.029510904
0.017197376
0.0070989659
0.0014091273
0.0014082351
0.0070855538
0.017162212
0.029450321
0.39574964
0.39515385
0.029396591
0.017128907
0.0070720844
0.0014073285
0.0014065019
0.0070598635
0.017096621
0.02934058
0.39455484
0.39398524
0.029290602
0.017065635
0.0070473491
0.0014056451
0.0014048588
0.0070359887
0.017035427
0.029237913
0.3934096
0.39285414
0.02919073
0.017006154
0.0070241789
0.0014040304
0.0014032622
0.0070134224
0.01697737
0.02914026
0.39228571
0.39172639
0.029094785
0.016949175
0.0070020752
0.0014024394
0.001401665
0.0069917109
0.016921303
0.029045762
0.3911466
0.39057021
0.029002484
0.01689429
0.0069808137
0.0014008285
0.0014000355
0.0069710888
0.016868205
0.028957021
0.38994075
0.38926974
0.028922161
0.016845115
0.0069614713
0.001399194
0.0013984098
0.0069543057
0.016827115
0.028894148
0.3884318
0.38740926
0.028889896
0.016817749
0.0069488249
0.0013975838
0.0013963418
0.0069434699
0.016809199
0.028887864
0.38585813
0.38329094
0.02883231
0.0167638
0.006921601
0.0013931523
0.0013840862
0.0068569293
0.016607783
0.028579176
0.37904255
0.37285682
0.027965325
0.016249792
0.0067134278
0.0013643809
0.001332456
0.0065084632
0.015736196
0.027046475
0.3658311
0.36482236
0.027478484
0.015973664
0.0065991161
0.0013358084
0.001377968
0.0067700931
0.016425414
0.028353046
0.3704595
0.37883581
0.029168889
0.016919201
0.0069650192
0.0013954422
0.0014042934
0.0070336983
0.017077462
0.029420184
0.38330835
0.38608726
0.02948196
0.017124016
0.0070549556
0.0014069018
0.0014081602
0.0070625033
0.017136365
0.029486949
0.38773426
0.3888712
0.029499484
0.017147935
0.0070680452
0.0014089112
0.0014097818
0.0070770947
0.017169091
0.029528986
0.38972754
0.39043891
0.029568329
0.017192588
0.0070862424
0.0014105731
0.0014114536
0.0070976063
0.017221278
0.029614455
0.39107211
0.39167929
0.029661538
0.017248221
0.0071078272
0.0014122365
0.001413091
0.0071195715
0.017278008
0.029710033
0.39225864
0.39283831
0.029758494
0.017305693
0.0071300907
0.0014138572
0.0014147037
0.0071421656
0.017336293
0.029808424
0.3934106
0.39397732
0.029857721
0.017364691
0.0071530435
0.0014154745
0.0014163427
0.0071657284
0.017396731
0.029909945
0.39453935
0.39511827
0.029962328
0.017427081
0.0071774127
0.0014171489
0.0014180616
0.0071910005
0.017461312
0.030018111
0.39570572
0.39632323
0.030075271
0.0174945
0.007203807
0.0014189259
0.0014199022
0.0072185145
0.017531472
0.030135567
0.39696082
0.3976247
0.030197856
0.017567894
0.0072326527
0.0014208448
0.0014219111
0.0072488497
0.017608602
0.030264422
0.3983105
0.39903911
0.030333685
0.017649225
0.0072646719
0.0014229589
0.0014241362
0.0072825494
0.017694034
0.03040697
0.39979893
0.40060682
0.030483997
0.01773946
0.0073003335
0.0014253138
0.0014266295
0.0073203097
0.017789491
0.030565987
0.40145985
0.40237279
0.030652092
0.017840587
0.0073404213
0.001427958
0.001429427
0.0073628803
0.017896843
0.030744466
0.40334084
0.40438534
0.030841148
0.017954343
0.0073855445
0.0014309095
0.0014325258
0.0074104609
0.018016724
0.030943649
0.40548986
0.40666133
0.031052158
0.018081295
0.0074358664
0.0014341668
0.0014359203
0.007462864
0.018148445
0.031162115
0.40788389
0.40915597
0.031277595
0.018217682
0.0074903953
0.0014377308
0.0014266937
0.0073677288
0.01787447
0.030634443
0.40856995
0.40731223
0.030524137
0.017807914
0.0073410548
0.0014249195
0.0014231881
0.007314205
0.017739995
0.030410593
0.40608
0.40492223
0.030305259
0.017675603
0.0072882681
0.0014215174
0.0014199497
0.007263935
0.0176137
0.030201481
0.40380728
0.40277647
0.030106066
0.017555367
0.0072405122
0.0014184237
0.0014170273
0.0072191015
0.017500634
0.030013858
0.40179357
0.40088926
0.029929811
0.01744911
0.0071983594
0.0014156721
0.0014144409
0.0071795463
0.017400797
0.0298481
0.40002434
0.39922881
0.029773964
0.017355257
0.0071612046
0.0014132359
0.0014121488
0.0071446732
0.017312532
0.029701264
0.39845864
0.39774947
0.029635503
0.017272035
0.0071283427
0.0014110736
0.0014101011
0.0071136023
0.017233702
0.029569896
0.39705455
0.39640716
0.029510725
0.01719715
0.0070988476
0.0014091225
0.0014082343
0.0070855225
0.017162209
0.029450456
0.39576249
0.39517998
0.02939741
0.017129239
0.0070721692
0.0014073338
0.001406515
0.0070600707
0.017097265
0.029341867
0.39458329
0.39401785
0.029292079
0.017066364
0.0070475906
0.0014056622
0.0014048811
0.0070363048
0.017036313
0.029239536
0.39343315
0.39288934
0.029193171
0.017007423
0.0070246168
0.0014040604
0.0014032977
0.0070139136
0.01697871
0.029142637
0.39231659
0.3917483
0.029097395
0.016950591
0.007002585
0.001402478
0.0014017062
0.0069922289
0.016922698
0.029048187
0.391171
0.39058908
0.029004381
0.016895356
0.0069812183
0.0014008668
0.0014000722
0.0069714461
0.016869155
0.028958672
0.38995572
0.38927801
0.028923022
0.016845605
0.0069616686
0.0013992236
0.0013984391
0.0069545649
0.01682784
0.028895523
0.38845455
0.38742931
0.028890439
0.016818038
0.0069489407
0.0013976032
0.0013963513
0.0069437253
0.016809822
0.028888878
0.38587965
0.38333234
0.028833426
0.016764486
0.0069218624
0.0013931488
0.0013839824
0.0068565125
0.016607014
0.028577867
0.37908745
0.37293854
0.027962196
0.016248368
0.0067128888
0.0013642573
0.001331574
0.0065050505
0.015729729
0.027034981
0.36605369
0.41229653
0.024963476
0.014632784
0.0061030639
0.001291651
0.0013216231
0.0062797309
0.015064942
0.02574262
0.41949255
0.42670326
0.026328451
0.015414917
0.0064209173
0.0013389227
0.001347157
0.0064810464
0.015554697
0.026546826
0.43117008
0.43383542
0.026595543
0.015592923
0.0064992766
0.0013499457
0.0013512274
0.0065056252
0.015603145
0.026598389
0.43545247
0.4365862
0.026608361
0.015612847
0.0065104155
0.0013519946
0.0013528261
0.0065184154
0.015631634
0.026634266
0.43748132
0.43824411
0.026668868
0.015652475
0.0065265793
0.0013535745
0.0013543995
0.0065369422
0.01567874
0.026710735
0.43893252
0.43960264
0.026753225
0.015703193
0.0065462334
0.0013551302
0.0013559214
0.0065569441
0.01573045
0.026797225
0.44025157
0.44089171
0.026840945
0.015755579
0.0065665074
0.0013566299
0.0013574075
0.006577485
0.015783423
0.026885827
0.44151733
0.44214881
0.026931052
0.015809504
0.0065874479
0.0013581166
0.0013589042
0.0065988853
0.015838415
0.026977606
0.44278091
0.44342622
0.027025138
0.015866
0.0066094845
0.0013596373
0.001360458
0.0066216906
0.015896785
0.027074749
0.44407829
0.44475587
0.02712579
0.015926586
0.0066331963
0.0013612354
0.0013621106
0.006646433
0.015959949
0.027179739
0.44545933
0.44618467
0.027234735
0.015992402
0.0066590741
0.0013629538
0.0013639109
0.0066737235
0.0160293
0.027294555
0.44693271
0.44772912
0.027355602
0.016065509
0.0066878953
0.0013648484
0.001365914
0.0067041708
0.016106497
0.027422211
0.44856183
0.44945776
0.0274913
0.016147679
0.0067203387
0.001366982
0.0013681809
0.0067387806
0.016194048
0.027566734
0.45040265
0.45141778
0.027645009
0.016240891
0.0067572311
0.0013693866
0.0013707239
0.0067778892
0.016292745
0.027729447
0.45248814
0.45363256
0.027817768
0.016345759
0.0067987702
0.0013720791
0.0013735543
0.0068220527
0.016403932
0.027912046
0.45483643
0.45609877
0.028010328
0.016463181
0.0068455504
0.0013750259
0.0013765776
0.0068695133
0.016522554
0.028106448
0.45740622
0.45880105
0.028210936
0.016585655
0.0068945661
0.001378226
0.40906875
0.031269064
0.01821269
0.0074884576
0.0014376068
0.0014357803
0.00746097
0.018143642
0.031153841
0.40778557
0.40659343
0.031046584
0.018078214
0.0074345795
0.001434052
0.0014324068
0.0074089345
0.018012909
0.030936652
0.40541075
0.40430142
0.030835829
0.017951434
0.007384249
0.0014307945
0.0014292947
0.0073613344
0.01789272
0.030736521
0.4032655
0.40230419
0.03064691
0.017837886
0.0073392342
0.0014278386
0.0014265019
0.00731887
0.017785551
0.030558131
0.40139063
0.40054367
0.03047888
0.017736891
0.0072992214
0.001425204
0.0014240212
0.0072812099
0.017690358
0.030399594
0.39973632
0.39898707
0.030330084
0.017647473
0.0072638435
0.0014228722
0.0014218312
0.0072479295
0.017606065
0.030259096
0.39826516
0.39758008
0.030197178
0.017567735
0.0072323877
0.0014208037
0.0014198683
0.0072181448
0.017530372
0.030132674
0.39692016
0.39629324
0.030076454
0.017495491
0.0072039985
0.0014189256
0.001418063
0.0071910225
0.017461194
0.030016856
0.39567456
0.39508334
0.029964515
0.01742871
0.0071778641
0.0014171746
0.0014163599
0.007165863
0.017396816
0.029908858
0.39449419
0.39392892
0.029860051
0.017366468
0.0071535639
0.0014155108
0.0014147258
0.0071423009
0.017336351
0.029807222
0.39335669
0.39279689
0.02976064
0.017307391
0.0071305846
0.0014138946
0.0014131156
0.0071197547
0.017278246
0.029709272
0.3922196
0.391643
0.02966376
0.017249955
0.0071083354
0.0014122758
0.0014114792
0.0070977924
0.017221508
0.029613651
0.391034
0.39039057
0.029571832
0.017194962
0.0070869551
0.0014106208
0.0014098174
0.0070775068
0.017169897
0.029529074
0.38968754
0.38884935
0.029503382
0.017150637
0.0070689206
0.0014089657
0.0014082059
0.0070633213
0.017138187
0.029488777
0.38772405
0.38608771
0.029487787
0.017127874
0.0070563115
0.0014069681
0.0014043286
0.0070357077
0.01708222
0.029426789
0.38333422
0.37884364
0.02917528
0.016922359
0.006965877
0.0013953965
0.0013773446
0.0067755765
0.01643802
0.028370106
0.37052665
0.36455918
0.027475905
0.015973577
0.006599201
0.0013350416
0.0013405943
0.0065776113
0.015947109
0.027465203
0.36401623
0.37099925
0.028413534
0.016466691
0.0067848147
0.0013773277
0.0013951561
0.0069641945
0.016915466
0.029160785
0.37887119
0.38340729
0.029421969
0.017077852
0.0070334746
0.0014039584
0.0014068152
0.0070559684
0.017125831
0.029482739
0.38612336
0.38775816
0.02948998
0.017137353
0.0070626664
0.0014080722
0.0014089308
0.0070693062
0.017150351
0.029501166
0.3888649
0.38972044
0.029530814
0.017169437
0.0070770548
0.0014097386
0.0014106077
0.0070872853
0.017194514
0.029569323
0.39041079
0.39104426
0.029615478
0.017221055
0.0070973139
0.0014114113
0.0014122635
0.0071085284
0.017249231
0.029660931
0.39163306
0.39221855
0.029710078
0.017277221
0.0071190614
0.0014130446
0.0014138836
0.00713065
0.017306329
0.029757265
0.39278223
0.39336394
0.029807725
0.017335168
0.0071415596
0.0014146601
0.0014155087
0.0071536664
0.017365555
0.029857014
0.39392074
0.39449643
0.029909611
0.017395805
0.0071651899
0.0014163066
0.0014171873
0.0071780527
0.017427996
0.029961776
0.3950691
0.39567023
0.030018276
0.017460619
0.0071905277
0.0014180304
0.0014189619
0.0072043646
0.017495186
0.030074372
0.39628527
0.39694345
0.030135505
0.017530704
0.0072180336
0.0014198696
0.001420874
0.0072332286
0.017568716
0.030197411
0.39760889
0.39831762
0.030264387
0.017607781
0.0072483185
0.0014218606
0.0014229475
0.0072649051
0.017649165
0.030331795
0.3990467
0.39982624
0.030405238
0.017692266
0.007281657
0.0014240361
0.0014252389
0.0073001199
0.017738334
0.030480432
0.40063572
0.40150545
0.030562055
0.017786564
0.0073189828
0.0014264607
0.0014278135
0.0073397741
0.01783846
0.030646953
0.40240911
0.40338012
0.030738643
0.017892925
0.0073611834
0.0014292064
0.0014307456
0.0073847402
0.01795178
0.030835177
0.40440684
0.40551688
0.030939358
0.018013825
0.0074091632
0.0014323359
0.0014340618
0.0074358226
0.018080128
0.031047834
0.40668507
0.40790437
0.031163729
0.018149033
0.0074628547
0.0014358273
0.0014376533
0.007490016
0.018216577
0.031275158
0.40916983
8.0833186
8.0814131
8.0832971
8.0813683
8.0329599
8.0540644
8.0601954
8.1037529
8.1004397
8.0540852
8.009878
8.0684755
8.100425
8.0850318
8.0367532
8.0035306
7.974327
7.8667441
7.8998509
7.7752594
7.9517478
7.9200917
7.7237369
7.5541983
7.8630254
7.9985822
8.0584226
7.9456924
7.9929364
8.0269571
8.0668069
7.9859343
7.9499754
7.8295648
7.8835091
7.7456712
7.9844431
7.9482682
7.9074199
7.8543815
7.8984742
7.6151183
7.5008785
7.4343825
7.8179232
7.7653211
7.7336915
7.7838674
7.4415853
7.4949777
7.3710918
7.3142431
7.2654499
7.3256256
7.6404887
7.6839956
7.6842445
7.8780584
7.9926194
8.0012036
7.9646015
7.9298097
0.366828
0.027014767
0.015719544
0.0065011784
0.0013370296
0.0013658277
0.0067007977
0.016215945
0.027904853
0.37284725
0.3787129
0.028521991
0.01657193
0.006842389
0.0013842819
0.0013932082
0.0069114441
0.016737906
0.028789617
0.38290511
0.38553292
0.028856809
0.016788232
0.0069347542
0.0013962498
0.001397551
0.0069431054
0.016802764
0.028865071
0.3871226
0.38824287
0.028876316
0.016814261
0.0069488854
0.0013983059
0.0013991616
0.0069581686
0.016836079
0.028906833
0.38908007
0.38980717
0.028945947
0.016859594
0.0069673873
0.0013999374
0.0014008044
0.0069788324
0.016888564
0.028992545
0.3904616
0.39107589
0.029038558
0.01691513
0.0069889848
0.0014015736
0.0014024198
0.0070008163
0.016945306
0.029087926
0.39166171
0.39224687
0.029134828
0.01697237
0.0070111842
0.0014031728
0.0014040126
0.0070232989
0.017003217
0.029185349
0.39281283
0.39339748
0.02923364
0.017031193
0.007034067
0.0014047725
0.0014056321
0.0070467585
0.017063433
0.029286395
0.39396025
0.39454224
0.029337479
0.017093131
0.0070582247
0.0014064217
0.0014073177
0.0070716327
0.017127029
0.029392845
0.39512787
0.3957443
0.029447786
0.017159178
0.0070841212
0.0014081632
0.0014091262
0.0070987492
0.017196123
0.02950821
0.39636699
0.39702553
0.029568905
0.017231709
0.0071125924
0.0014100477
0.0014110905
0.0071285262
0.017271805
0.029634405
0.39770373
0.39842388
0.029701721
0.017311425
0.0071439988
0.0014121111
0.0014132596
0.0071616089
0.017355636
0.029773974
0.39917298
0.39997008
0.02984892
0.017400002
0.0071790204
0.0014144037
0.0014156862
0.0071987267
0.017449431
0.029929874
0.4008159
0.40171643
0.030013759
0.017499396
0.0072184298
0.0014169779
0.0014184164
0.0072405783
0.017554913
0.030104787
0.40266961
0.40369739
0.030199773
0.01761157
0.0072629471
0.0014198756
0.0014214785
0.0072876324
0.017673285
0.030300839
0.40478975
0.40595279
0.030408025
0.01773733
0.0073129052
0.0014231181
0.0014248733
0.007339799
0.017804332
0.030517698
0.40717886
0.40847695
0.030633087
0.017873551
0.0073672859
0.0014266809
0.0014247548
0.0073377707
0.017798887
0.030508577
0.40709501
0.40593032
0.030405794
0.017736466
0.0073125875
0.0014230917
0.0014214639
0.0072873447
0.017672501
0.030298802
0.40478504
0.40370009
0.030198594
0.017611025
0.0072625326
0.0014198606
0.0014183775
0.0072397803
0.017552902
0.030100827
0.40267577
0.40172109
0.030012274
0.017498579
0.0072178917
0.0014169426
0.0014156319
0.0071978321
0.017447114
0.029925222
0.40082698
0.39999039
0.029846675
0.017398828
0.0071783669
0.0014143556
0.0014131998
0.0071607023
0.017353175
0.029768936
0.39917586
0.39843687
0.029700565
0.017310999
0.0071436755
0.0014120763
0.0014110635
0.00712829
0.017270951
0.029631878
0.39771688
0.39704112
0.029570409
0.017232919
0.0071129124
0.0014100512
0.001409132
0.0070988688
0.017196231
0.029507315
0.3963761
0.39575177
0.029451302
0.017161452
0.0070847936
0.0014082003
0.0014073541
0.0070720805
0.017127948
0.029393269
0.39513578
0.39453787
0.029342209
0.017096131
0.0070591825
0.0014064846
0.0014056911
0.0070474896
0.017065103
0.029288107
0.39396887
0.39340215
0.029239143
0.017034697
0.0070352254
0.0014048532
0.0014040815
0.0070240891
0.017004977
0.029187072
0.39281537
0.39224858
0.029140056
0.016975742
0.0070123043
0.001403257
0.0014024848
0.0070014252
0.016946527
0.029088612
0.39164212
0.39106972
0.029043562
0.016918308
0.0069900079
0.0014016555
0.0014008714
0.0069794292
0.016889852
0.028993551
0.39045087
0.38980528
0.028949776
0.016862137
0.0069681896
0.0014000149
0.0013992248
0.0069585619
0.016836914
0.028907288
0.38907803
0.38823854
0.028880709
0.016816917
0.006949662
0.0013983929
0.001397633
0.0069434974
0.01680375
0.028865998
0.38712763
0.38552371
0.028862101
0.016791184
0.0069355706
0.0013963852
0.0013933717
0.0069120255
0.016740177
0.028793971
0.38284297
0.37844565
0.028532087
0.016575093
0.0068423484
0.0013845834
0.0013660354
0.0066999641
0.016220123
0.027922124
0.37216976
0.36491182
0.026996719
0.015688631
0.0064841224
0.0013367435
0.0012917206
0.0060814801
0.014680535
0.025311921
0.35101077
0.36673351
0.029001805
0.016751474
0.0068488514
0.0013665672
0.0013396847
0.0066248879
0.016028174
0.027559042
0.3664281
0.37061125
0.02834492
0.016423315
0.0067705695
0.0013793354
0.0013957843
0.0069608092
0.016907357
0.029145951
0.37871207
0.38308046
0.02939418
0.017060894
0.007027045
0.0014043832
0.0014070054
0.0070509471
0.017113559
0.029463386
0.38584642
0.38750749
0.029469554
0.017124624
0.0070576078
0.0014081461
0.001408955
0.0070652763
0.017140593
0.029486
0.38864577
0.38952008
0.029516181
0.017160148
0.0070733102
0.001409722
0.0014105784
0.0070841486
0.017186869
0.029557396
0.39024201
0.39090761
0.029604042
0.017213774
0.0070944041
0.001411368
0.0014122239
0.0071061865
0.017243604
0.029652436
0.39153839
0.39215619
0.029700724
0.017271318
0.0071167493
0.0014129953
0.0014138483
0.0071289752
0.0173024
0.029751544
0.39272935
0.39330776
0.029800747
0.017330742
0.0071398152
0.0014146152
0.0014154741
0.0071523669
0.01736253
0.02985267
0.39387874
0.39448518
0.02990414
0.017392259
0.0071637911
0.0014162632
0.0014171542
0.0071770739
0.017425884
0.029959136
0.39506622
0.39566888
0.030013383
0.017457457
0.0071892883
0.0014179836
0.0014189256
0.0072035457
0.017493441
0.030072235
0.39627842
0.39692111
0.030131208
0.017527924
0.0072169379
0.0014198191
0.0014208344
0.0072324694
0.017567088
0.030195355
0.39757674
0.39827036
0.030260359
0.01760524
0.0072473311
0.0014218151
0.0014229223
0.0072643192
0.017647934
0.0303303
0.39898893
0.39976183
0.030402427
0.017690467
0.007280961
0.0014240153
0.0014252467
0.007299856
0.017737884
0.030480122
0.40055914
0.40142409
0.030561327
0.017785901
0.0073186959
0.001426481
0.0014278549
0.0073397875
0.017838755
0.030648052
0.40234007
0.40331378
0.030738572
0.017892627
0.0073610295
0.0014292471
0.0014307913
0.0073847195
0.017951907
0.030835842
0.40433464
0.40542722
0.030938368
0.018013125
0.0074089045
0.0014323708
0.0014341085
0.0074355776
0.018079408
0.031046382
0.40656797
0.40777342
0.03116546
0.018151001
0.0074640344
0.0014359197
0.0014377556
0.0074943942
0.018221346
0.031276259
0.40903347
0.0014247281
0.0073370535
0.017797273
0.030506121
0.40708169
0.40590794
0.030401457
0.017733691
0.0073114508
0.0014230342
0.0014213842
0.0072861136
0.017669334
0.030293657
0.40476154
0.40368833
0.030195785
0.017609445
0.0072619985
0.0014198029
0.0014183566
0.0072398194
0.01755286
0.030100557
0.40268488
0.40174501
0.03001415
0.017499824
0.0072184285
0.0014169618
0.0014156924
0.0071988683
0.017449667
0.029929356
0.40085814
0.40002284
0.02985185
0.017402116
0.0071797233
0.0014144492
0.0014133234
0.0071622527
0.017357159
0.02977558
0.39921522
0.39845151
0.029704067
0.017313036
0.007144423
0.0014121788
0.0014111298
0.0071284317
0.017271536
0.029633356
0.39771198
0.39702689
0.029568959
0.017231912
0.0071125042
0.0014100707
0.0014091365
0.0070986671
0.017195686
0.029506611
0.39636589
0.39572973
0.029450695
0.017161062
0.0070846445
0.0014081999
0.0014073534
0.0070719764
0.017127756
0.029393106
0.39512756
0.39454657
0.029342115
0.017096017
0.0070591194
0.0014064859
0.0014056953
0.0070474377
0.01706503
0.02928809
0.39396334
0.39339352
0.029238295
0.017034247
0.0070350647
0.0014048555
0.0014040823
0.0070238523
0.017004372
0.029186099
0.39279946
0.39222616
0.029137941
0.016974567
0.0070118777
0.0014032516
0.0014024785
0.0070009758
0.016945412
0.029086873
0.39162181
0.39104206
0.029040672
0.016916658
0.0069893894
0.0014016454
0.0014008623
0.0069787686
0.016888203
0.0289909
0.39041393
0.38976669
0.028946594
0.016860242
0.0069674436
0.001400008
0.0013992228
0.0069577687
0.016834937
0.028904067
0.38902114
0.3881883
0.028877537
0.016814972
0.0069488705
0.0013984007
0.0013976511
0.0069426962
0.016801759
0.028862738
0.38706873
0.38546746
0.028857955
0.01678872
0.0069345836
0.0013964079
0.001393407
0.0069112014
0.016738052
0.028790344
0.38280874
0.37844871
0.028530783
0.016574549
0.0068422177
0.0013846589
0.0013662238
0.0067014838
0.016223748
0.027927893
0.37231158
0.36521229
0.027014236
0.015698183
0.0064879525
0.0013372274
0.0012931576
0.0061158397
0.014767462
0.025450529
0.35240693
0.39038813
0.022833691
0.013240205
0.0055151675
0.0012601661
0.0013357116
0.0064683243
0.015662946
0.026915159
0.35978264
0.36475843
0.027079282
0.01576614
0.0065095691
0.0013338947
0.0013356646
0.0064957323
0.015706505
0.02699544
0.36654645
0.3728213
0.027908146
0.016217441
0.0067015797
0.0013654687
0.0013840732
0.0068430627
0.0165738
0.028524327
0.3787132
0.38298665
0.028793294
0.016739483