/*--------------------------------*- C++ -*----------------------------------*\
  =========                 |
  \\      /  F ield         | OpenFOAM: The Open Source CFD Toolbox
   \\    /   O peration     | Website:  https://openfoam.org
    \\  /    A nd           | Version:  7
     \\/     M anipulation  |
\*---------------------------------------------------------------------------*/
FoamFile
{
    version     2.0;
    format      ascii;
    class       volScalarField;
    location    "300";
    object      nut;
}
// * * * * * * * * * * * * * * * * * * * * * * * * * * * * * * * * * * * * * //

dimensions      [0 2 -1 0 0 0 0];

internalField   nonuniform List<scalar> 
25201
(
6.814185
6.8028737
6.8142026
6.80291
6.6895265
6.7730602
6.7918274
6.8290401
6.8146451
6.7484148
6.814628
6.7730413
6.7336519
6.1889737
6.0834928
6.6095092
6.5219263
6.4403316
6.4023338
6.1710362
6.3354492
6.3380268
6.4072892
6.2882897
6.278157
6.1261307
6.2279737
6.4430516
6.3848234
6.1627248
6.2083
6.2696738
5.9066008
5.9768564
6.0666957
6.0834507
6.2687233
6.2054934
5.9953624
5.923853
6.1576971
6.1309837
6.1361606
5.8689722
5.8871627
5.925077
6.1473502
6.4372113
6.6811491
6.73368
6.7825905
6.7367259
6.5778375
6.6409965
6.7059386
6.6720436
6.644582
6.5648402
6.5998574
6.3696287
6.4026991
6.4885346
6.5202739
6.5726733
6.6033946
6.7341112
6.6705587
6.4620278
6.41462
6.2447151
6.1978912
6.2534031
6.4907963
6.5330405
6.4817284
6.082824
6.1372026
6.2037095
6.2239412
6.2816457
6.3572627
6.4223856
6.3148525
6.3253987
6.2527333
6.3502917
6.2205143
6.1887178
6.0781265
6.1401825
6.0622136
6.0162949
6.0082098
6.014903
6.0054869
6.0711079
6.0699034
6.0051783
5.8861387
5.9668797
5.9696476
5.8935827
5.9049718
5.9813115
5.9844796
5.9211289
5.7803812
5.8708569
5.926502
5.9183784
5.8522382
5.857896
5.7616571
5.7529311
5.6057172
5.7191051
5.7227925
5.614964
5.6255838
5.7706012
5.8666285
5.7364366
5.7404705
5.6353034
5.473872
5.6089671
5.7097642
5.9263613
6.1402064
5.9954211
5.9239423
5.8872003
5.9252219
5.9588909
6.0320819
6.1129391
6.2206636
6.3149724
6.4885637
6.6446034
6.6720535
6.5202577
6.3696094
6.4026826
6.5648656
6.5998511
6.6409574
6.7059181
6.782557
6.7340987
6.6033754
6.5725912
6.4146359
6.4619131
6.6704853
6.6103964
6.7366724
6.6810853
6.4908434
6.533058
6.1979063
6.2533534
6.3503184
6.357303
6.4224407
6.2816754
6.223968
6.2036756
6.0676152
6.1360021
6.2527235
6.3254218
6.1910826
6.2797729
6.3283473
6.216036
6.1909271
6.1719663
5.9630984
5.9814943
5.7873894
5.8516325
5.8741163
5.7816343
5.7747832
5.6691843
5.7584122
5.7564994
5.648735
5.4871778
5.624829
5.7394409
5.962945
6.1720304
6.0163836
6.0621295
6.0778557
5.6255131
5.7364007
5.8667061
5.9812519
5.9846144
5.9212995
6.0082707
6.0147508
5.9046685
5.770728
5.7804456
5.8708843
5.7405725
5.6354202
5.4739587
5.6089201
5.6019569
5.5882373
5.6933223
6.8028098
6.8140314
6.6813774
6.4430837
6.3847964
6.136274
5.9769682
6.2082404
6.1627155
6.1578337
6.1309085
5.8871415
5.8687404
5.9064524
5.9238583
5.9953918
6.2054373
6.2687825
6.2695857
6.0666837
6.0833982
6.1887856
6.3379593
6.5218686
0.0011139343
0.0051842122
0.012493094
0.021566434
0.28831135
0.29404127
0.02234045
0.012919725
0.0053551695
0.0011438963
0.0011588262
0.0055033804
0.013292552
0.022962318
0.30058418
0.30431113
0.02318493
0.013431586
0.0055626866
0.0011661072
0.001168727
0.0055854742
0.013482845
0.023255639
0.3066051
0.30805055
0.023281982
0.013505185
0.0055961389
0.0011700475
0.0011710771
0.0056071581
0.013530821
0.02331704
0.30910643
0.30998769
0.023365723
0.01356171
0.0056195574
0.0011720967
0.0011731768
0.0056342204
0.01359898
0.023425978
0.31078766
0.31157404
0.023491945
0.013638272
0.0056493882
0.001174254
0.0011753836
0.0056659032
0.013680842
0.02356261
0.31235293
0.31315472
0.023635274
0.013723884
0.0056824831
0.0011765042
0.001177682
0.0057002555
0.013769702
0.023711552
0.31397443
0.31482663
0.023789513
0.013815956
0.005718112
0.00117886
0.0011801022
0.0057371646
0.01386497
0.023871069
0.31570233
0.31661556
0.023954739
0.013914724
0.0057564228
0.0011813555
0.0011826777
0.0057768861
0.013967284
0.024042167
0.31755917
0.31854536
0.024132132
0.014020853
0.0057976591
0.0011840209
0.0011854361
0.0058196236
0.014077167
0.024225797
0.31956466
0.32062778
0.024322445
0.01413479
0.0058420123
0.001186882
0.0011884023
0.0058655858
0.014195098
0.024422689
0.32172759
0.32287457
0.024526268
0.014256963
0.0058896821
0.001189957
0.0011915842
0.0059149545
0.014321518
0.024633575
0.32406291
0.3253002
0.024744233
0.014387662
0.0059407649
0.0011932484
0.0011949868
0.0059677522
0.014456515
0.024858719
0.32657846
0.32790285
0.024976615
0.014527059
0.0059953352
0.0011967669
0.0011986264
0.0060240949
0.014600311
0.025098412
0.32926818
0.33068219
0.025224077
0.014675556
0.0060535754
0.0012005428
0.0012025507
0.0060842889
0.014753666
0.025353944
0.33214419
0.33366277
0.025488527
0.014834299
0.0061159154
0.0012046207
0.0012067589
0.0061487569
0.014917418
0.025626387
0.335234
0.33685127
0.025767946
0.01500238
0.006182243
0.0012089659
0.37770841
0.023247235
0.013663221
0.0056946935
0.0011591685
0.0011571864
0.0056644149
0.013586427
0.023120291
0.37591352
0.37415627
0.022995361
0.013510407
0.0056343139
0.0011552576
0.0011533703
0.0056049137
0.013435502
0.022871593
0.37244191
0.37078993
0.022752338
0.013363189
0.0055765116
0.0011515289
0.0011497667
0.0055491909
0.013293285
0.022636464
0.36919821
0.36766798
0.022525085
0.013225711
0.0055226533
0.0011480601
0.0011464204
0.0054971398
0.013160314
0.022416659
0.36619177
0.36477449
0.022312701
0.013097221
0.0054724004
0.0011448274
0.0011433033
0.0054487677
0.013036497
0.022211885
0.36341033
0.36209963
0.022115597
0.012978067
0.0054258807
0.0011418261
0.0011404112
0.0054038991
0.012921463
0.022021487
0.36082991
0.35960742
0.021931213
0.012866671
0.0053824651
0.0011390326
0.0011377142
0.0053619506
0.012813685
0.02184297
0.35842688
0.3572927
0.021758718
0.012762553
0.0053419782
0.0011364284
0.0011352009
0.0053229116
0.012713134
0.021676184
0.35619348
0.35515189
0.021598332
0.01266581
0.0053044241
0.0011340045
0.0011328604
0.0052867707
0.012619909
0.021521463
0.35413833
0.35316742
0.02144865
0.012575695
0.0052695304
0.0011317351
0.0011306559
0.0052530996
0.012532823
0.021376668
0.352218
0.35130353
0.021308311
0.012491337
0.00523695
0.0011295844
0.001128552
0.0052216355
0.012451299
0.021241016
0.35041134
0.34954325
0.021177689
0.012412741
0.0052066123
0.0011275202
0.0011265237
0.0051925848
0.012376153
0.02111656
0.348678
0.34779871
0.021062561
0.012342375
0.0051792174
0.0011255302
0.0011245721
0.005167635
0.012313188
0.021016509
0.34684007
0.34573796
0.020985289
0.012289837
0.0051574202
0.0011235892
0.0011222919
0.0051472628
0.012267891
0.020958504
0.34425549
0.34196125
0.020896461
0.012221593
0.0051259866
0.0011196343
0.0011130074
0.005073605
0.012097052
0.02069943
0.33820584
0.33247869
0.020249151
0.011828222
0.0049631967
0.0010990244
0.0010789047
0.0047890093
0.011413422
0.019546781
0.32563755
0.30510772
0.017503879
0.010104928
0.0042528978
0.0010402214
0.0010770679
0.0047965432
0.011432612
0.019574069
0.32616324
0.33306588
0.020273808
0.011844046
0.0049693926
0.0010980236
0.0011125464
0.0050802478
0.012113424
0.020725152
0.33869754
0.34233889
0.020915222
0.012233593
0.0051310019
0.0011193554
0.0011221437
0.0051514311
0.012278247
0.020975213
0.34458723
0.34602125
0.020997376
0.012297416
0.0051605791
0.0011234944
0.0011245215
0.0051703785
0.012320171
0.021028136
0.34709543
0.34801065
0.021071033
0.012347505
0.0051813188
0.0011254946
0.0011265068
0.0051944233
0.012380904
0.021124655
0.34886467
0.34971039
0.02118347
0.012416171
0.005208025
0.0011275068
0.00112855
0.0052229298
0.012454699
0.021246965
0.35055647
0.35143023
0.021312299
0.012493672
0.0052379287
0.0011295825
0.0011306641
0.0052540522
0.012535334
0.021381119
0.35232876
0.35326507
0.021451565
0.012577434
0.0052702895
0.0011317453
0.0011328828
0.0052876435
0.012622192
0.021525482
0.35423203
0.35524071
0.021601249
0.012667574
0.0053051871
0.0011340294
0.0011352368
0.0053238505
0.012715613
0.021680558
0.35628506
0.35737423
0.021761999
0.01276449
0.0053427877
0.0011364611
0.0011377503
0.0053628491
0.012816037
0.021847069
0.35850272
0.35967881
0.021934533
0.012868618
0.0053832655
0.0011390625
0.0011404406
0.0054047866
0.012923806
0.022025572
0.36089669
0.36216468
0.022119285
0.012980212
0.0054267373
0.0011418468
0.0011433201
0.0054497344
0.013039055
0.02221632
0.36348002
0.36484643
0.022316413
0.013099382
0.0054732573
0.0011448332
0.0011464214
0.0054979646
0.01316254
0.022420597
0.36626645
0.36774562
0.02252815
0.013227446
0.0055233263
0.0011480537
0.001149762
0.0055498414
0.013295073
0.022639686
0.36927981
0.37087611
0.022754955
0.013364656
0.0055770777
0.0011515264
0.0011533789
0.0056055357
0.013437165
0.02287453
0.37253077
0.37424704
0.022998324
0.013512194
0.0056350349
0.0011552819
0.0011572351
0.0056654781
0.013589078
0.023124527
0.37600846
0.3778177
0.023253409
0.013667019
0.0056961696
0.0011592447
0.0011613402
0.0057276983
0.013746932
0.023385342
0.37969901
0.0012022279
0.0061187359
0.014813888
0.025393768
0.33813678
0.33646023
0.025250733
0.014727875
0.0060847687
0.001199975
0.0011977948
0.0060513797
0.014643196
0.02510992
0.33482945
0.33325301
0.024973854
0.014561114
0.0060189631
0.0011956863
0.0011936384
0.0059874286
0.014480821
0.024840216
0.33172019
0.33024457
0.024711371
0.014403178
0.0059568759
0.0011916392
0.0011897217
0.0059274854
0.014328098
0.024586143
0.3288196
0.3274493
0.02446587
0.014255598
0.0058989725
0.0011878656
0.0011860858
0.0058715747
0.014185431
0.0243487
0.32612248
0.32485519
0.024236819
0.014117965
0.0058450751
0.0011843646
0.0011827193
0.0058196215
0.014052598
0.024127484
0.32362599
0.32244584
0.024022847
0.01398953
0.0057948929
0.0011811242
0.0011795989
0.0057711753
0.01392848
0.023920625
0.3213034
0.32020592
0.023822757
0.013869494
0.0057480807
0.0011781132
0.0011766923
0.0057259849
0.013812458
0.023727097
0.31914559
0.31813108
0.023635976
0.013757513
0.0057044893
0.0011753061
0.0011739814
0.0056839676
0.013704392
0.023546704
0.31714885
0.31620821
0.023461804
0.013653204
0.0056639651
0.0011726837
0.0011714434
0.0056449257
0.013603782
0.023378577
0.31529832
0.31442668
0.02329963
0.013556174
0.0056263406
0.0011702232
0.0011690549
0.0056087037
0.013510245
0.023222086
0.31358221
0.31277117
0.023148722
0.013466004
0.0055914529
0.001167898
0.0011667854
0.0055751469
0.013423409
0.023076653
0.31198201
0.31121944
0.023009372
0.013382699
0.0055592581
0.0011656755
0.0011646064
0.0055445132
0.013344228
0.02294463
0.3104574
0.30968679
0.022888557
0.013309294
0.0055306568
0.0011635439
0.0011625291
0.0055189795
0.013279951
0.022842281
0.30883895
0.30785429
0.022814128
0.013258028
0.0055092098
0.0011614984
0.00116012
0.005499741
0.013238241
0.022792017
0.30650264
0.30434942
0.022726535
0.013189581
0.0054776197
0.0011571165
0.0011493241
0.0054219469
0.013054781
0.022508172
0.30087628
0.29576599
0.022000953
0.012759593
0.0053039609
0.001132576
0.0011059437
0.0051380331
0.012343783
0.021258238
0.29001263
0.28937984
0.021623328
0.012546504
0.005215955
0.0011100066
0.0011439729
0.005347061
0.012894022
0.022302545
0.29380798
0.30071605
0.022977079
0.013301724
0.0055068823
0.0011587472
0.0011661837
0.0055650028
0.013436611
0.023192199
0.30434901
0.30666569
0.023262284
0.013486733
0.0055870298
0.0011687143
0.0011700593
0.0055978308
0.013509137
0.0232875
0.30809779
0.30915968
0.023321128
0.013533043
0.0056079986
0.0011710482
0.0011721056
0.0056208414
0.013564731
0.023369847
0.31003412
0.31083237
0.023429074
0.013600604
0.0056348155
0.0011731578
0.0011742715
0.0056504805
0.013640839
0.023495385
0.31160408
0.31238391
0.023565204
0.01368216
0.0056663719
0.0011753733
0.0011765278
0.0056834342
0.013726119
0.023638249
0.31317735
0.31399999
0.023713767
0.013770806
0.0057006455
0.0011776793
0.0011788888
0.0057189929
0.013818031
0.023792316
0.31484933
0.31572861
0.023873142
0.013866011
0.0057375326
0.0011801064
0.0011813897
0.0057572698
0.013916724
0.023957482
0.31663807
0.31758495
0.024044406
0.013968435
0.005777299
0.0011826899
0.0011840596
0.0057985305
0.0140229
0.024134967
0.31856687
0.31959029
0.024228516
0.014078611
0.0058201455
0.0011854539
0.0011869207
0.0058429378
0.014136989
0.024325583
0.32065244
0.32175555
0.024425854
0.014196804
0.0058661991
0.0011884196
0.0011899957
0.0058906619
0.014259381
0.024529943
0.32289779
0.32408453
0.024637451
0.014323576
0.0059156799
0.0011916125
0.0011933093
0.0059418824
0.014390464
0.024748668
0.3253124
0.32658661
0.024863566
0.014459161
0.0059687204
0.0011950538
0.0011968803
0.0059967613
0.01453062
0.024982386
0.32790692
0.32927907
0.025105009
0.014604047
0.0060255216
0.0011987584
0.001200716
0.0060555017
0.014680322
0.025231834
0.33070331
0.3321865
0.025362418
0.014758547
0.0060861889
0.0012027232
0.0012048059
0.0061180651
0.014839525
0.025497066
0.33372478
0.33531666
0.025635999
0.014922806
0.0061507865
0.001206943
0.0012091619
0.0061846968
0.015008603
0.025778376
0.3369589
0.3386485
0.025924839
0.015096601
0.0062194276
0.0012114478
0.0012021971
0.006118395
0.014813019
0.025392291
0.3381226
0.33645299
0.025249476
0.014727108
0.0060844567
0.001199941
0.0011977582
0.0060510736
0.014642454
0.025108706
0.33482624
0.33325266
0.024972633
0.014560362
0.0060186467
0.001195649
0.0011936019
0.0059871127
0.014480062
0.024838972
0.33172066
0.33024463
0.024710036
0.014402369
0.0059565449
0.0011916054
0.0011896923
0.0059271561
0.014327293
0.024584815
0.32881735
0.32744535
0.024464482
0.014254769
0.0058986425
0.0011878409
0.0011860672
0.0058712725
0.014184686
0.024347492
0.32611904
0.32484604
0.024235249
0.014117045
0.0058447231
0.0011843473
0.0011827045
0.0058192994
0.014051772
0.024126122
0.32361538
0.32243566
0.024021539
0.013988739
0.0057945855
0.0011811113
0.0011795879
0.0057709052
0.013927803
0.023919533
0.32129396
0.32019888
0.023821841
0.013868907
0.0057478413
0.0011781036
0.0011766841
0.0057257863
0.013811984
0.023726363
0.3191387
0.3181293
0.023635523
0.01375718
0.0057043397
0.0011753004
0.0011739786
0.0056838692
0.013704192
0.02354646
0.31714879
0.31621044
0.023461685
0.013653064
0.0056638883
0.001172683
0.0011714453
0.0056448935
0.01360374
0.023378585
0.31529929
0.31443258
0.023299982
0.013556301
0.0056263639
0.001170229
0.0011690638
0.0056087568
0.013510424
0.023222462
0.31358749
0.31277467
0.023149248
0.013466243
0.0055915232
0.0011679091
0.0011667987
0.0055752303
0.013423667
0.023077154
0.31198718
0.31122274
0.0230097
0.013382847
0.0055593053
0.0011656892
0.0011646204
0.0055445419
0.013344329
0.022944855
0.31045882
0.30968514
0.022888457
0.013309209
0.0055306233
0.0011635559
0.001162541
0.0055189758
0.013279959
0.022842372
0.30884295
0.30785792
0.022813847
0.013257842
0.0055091407
0.0011615046
0.001160118
0.0054997764
0.013238281
0.022792021
0.30651076
0.3043711
0.022726584
0.013189654
0.0054776503
0.0011571014
0.0011492301
0.0054214861
0.013053803
0.022506461
0.30090264
0.29581791
0.021997707
0.01275798
0.0053033379
0.0011324519
0.0011052063
0.0051354584
0.012339234
0.021250015
0.29018809
0.3270639
0.019625425
0.011483365
0.0048240471
0.0010732689
0.0010978851
0.004964959
0.011827148
0.020246216
0.33281508
0.33874306
0.02072935
0.012115668
0.0050809446
0.0011125507
0.0011195497
0.0051320602
0.01223557
0.020917796
0.34236319
0.3445854
0.020975411
0.012277873
0.0051512378
0.0011222146
0.0011235646
0.0051607154
0.012297621
0.020997178
0.34599517
0.34706414
0.021026733
0.012318873
0.0051698052
0.001124537
0.0011255316
0.0051813028
0.012347343
0.021070191
0.34797923
0.34883509
0.021123193
0.012379683
0.0051939023
0.0011265097
0.0011275373
0.0052081187
0.012416293
0.021183089
0.34967401
0.35052901
0.02124611
0.012453844
0.0052225429
0.0011285493
0.0011296057
0.0052380497
0.012493886
0.021312146
0.35140405
0.35230885
0.021380371
0.012534552
0.0052536937
0.0011306575
0.0011317596
0.0052703688
0.012577544
0.021451285
0.35324186
0.35421269
0.021524587
0.012621333
0.0052872542
0.0011328681
0.0011340325
0.0053051691
0.012667438
0.021600616
0.35521882
0.35626616
0.021679281
0.012714548
0.0053233835
0.0011352125
0.001136452
0.0053426455
0.012764036
0.021760883
0.3573516
0.3584823
0.021845264
0.012814673
0.005362267
0.0011377138
0.0011390399
0.0053829589
0.012867754
0.021932814
0.35965738
0.36087685
0.022023048
0.012922049
0.0054040634
0.0011403947
0.0011418193
0.0054262977
0.012978991
0.022116968
0.36214087
0.36345658
0.022213645
0.013037235
0.0054489933
0.0011432803
0.0011448208
0.0054728402
0.013098246
0.022314321
0.36482199
0.36624558
0.022418426
0.013161029
0.0054973475
0.00114641
0.0011480762
0.0055230809
0.013226723
0.022526782
0.36772355
0.36926019
0.022638496
0.013294173
0.0055494756
0.0011497891
0.0011515798
0.0055770352
0.013364393
0.022754314
0.37085224
0.37250438
0.022873856
0.013436616
0.0056053197
0.0011534237
0.0011553282
0.0056349091
0.013511729
0.022997372
0.37421225
0.37596738
0.023123283
0.01358811
0.0056650554
0.0011572546
0.0011592478
0.0056955719
0.013665287
0.023250359
0.37776705
0.37963784
0.023382683
0.013745321
0.0057270909
0.0011613327
0.33856754
0.025918004
0.015092586
0.0062178662
0.0012113476
0.0012090459
0.0061830825
0.01500444
0.025771229
0.33687771
0.33525255
0.025630036
0.014919436
0.0061494809
0.001206836
0.0012047009
0.0061165868
0.014835799
0.025490607
0.33366316
0.33213166
0.025356057
0.014754847
0.006084706
0.0012026105
0.0012005921
0.006053946
0.014676293
0.02522477
0.33065794
0.32924078
0.02509874
0.014600451
0.0060240903
0.0011986364
0.0011967595
0.005995332
0.014526879
0.024975705
0.32787188
0.32655416
0.024857797
0.014455904
0.0059674332
0.001194942
0.0011932014
0.0059405976
0.014387082
0.02474259
0.32528039
0.32405518
0.024632718
0.014320913
0.0059146166
0.0011915192
0.0011899135
0.0058896541
0.014256722
0.02452513
0.32286996
0.32172768
0.024422665
0.014194986
0.0058654424
0.0011883563
0.0011868663
0.0058422095
0.014135066
0.024322063
0.32062487
0.31956413
0.024226388
0.014077413
0.0058196252
0.0011854145
0.0011840252
0.0057979963
0.014021469
0.024132277
0.31853891
0.3175547
0.024042878
0.013967603
0.005776919
0.0011826656
0.0011813652
0.0057568094
0.013915452
0.023954997
0.31660401
0.31569305
0.023871804
0.013865314
0.005737206
0.0011800896
0.0011788686
0.0057185452
0.013816779
0.023789828
0.31481166
0.31396541
0.023712432
0.013770131
0.0057003255
0.0011776649
0.0011765096
0.005683007
0.013724929
0.023635884
0.31314316
0.31234933
0.023563915
0.013681518
0.0056660634
0.0011753611
0.001174255
0.0056500573
0.013639643
0.023492966
0.31156884
0.31079453
0.023428386
0.013600273
0.0056346073
0.0011731504
0.0011720947
0.0056205426
0.013563847
0.023367904
0.31000095
0.30913347
0.023320859
0.01353302
0.005607923
0.0011710458
0.0011700547
0.0055978266
0.013508955
0.023286654
0.30807753
0.3066511
0.023263446
0.01348759
0.0055873146
0.0011687172
0.0011661659
0.0055659258
0.013438719
0.023195037
0.30435606
0.30071098
0.022978356
0.01330181
0.005506671
0.0011586379
0.0011433854
0.0053509107
0.012902884
0.022314625
0.29387027
0.28914947
0.021616063
0.012543237
0.0052147649
0.001109136
0.0011138115
0.0051959435
0.012519072
0.021604181
0.28869267
0.2942665
0.022352257
0.012927947
0.0053588989
0.0011434331
0.0011584511
0.0055058409
0.013297883
0.022969753
0.30075294
0.3044394
0.023193049
0.013436852
0.0055648548
0.0011658942
0.0011686072
0.0055875334
0.013487698
0.023262875
0.30671227
0.30813252
0.023289501
0.013509987
0.0055980652
0.0011699855
0.0011710386
0.0056087367
0.013534593
0.023322683
0.30917631
0.31004647
0.023371242
0.01356528
0.0056209941
0.0011720778
0.0011731643
0.005635374
0.013601743
0.023430067
0.31083387
0.31160375
0.023496172
0.013641005
0.005650476
0.0011742502
0.0011753787
0.00566672
0.013682761
0.023565336
0.31237559
0.31317037
0.02363848
0.013725977
0.0056833123
0.0011765074
0.0011776853
0.0057008949
0.013771165
0.023713551
0.31398703
0.31483946
0.023792198
0.013817729
0.0057188238
0.0011788717
0.0011801155
0.0057377654
0.01386637
0.023873032
0.31571586
0.31663023
0.023957449
0.01391648
0.0057571218
0.0011813774
0.0011827012
0.0057775182
0.013968771
0.024044327
0.3175763
0.31856421
0.024135087
0.014022734
0.0057984069
0.0011840507
0.0011854647
0.0058203255
0.014078852
0.024228343
0.31958992
0.32066181
0.024325649
0.014136812
0.0058428175
0.0011869108
0.0011884233
0.0058663567
0.014197026
0.024425761
0.32177027
0.32292427
0.024529811
0.014259075
0.0058904831
0.0011899707
0.0011915852
0.0059156242
0.014323261
0.024636487
0.3241169
0.32535517
0.024747287
0.014389441
0.0059414236
0.001193243
0.0011949736
0.0059683038
0.014457969
0.024861165
0.32663462
0.32796154
0.024979305
0.014528662
0.005995936
0.0011967547
0.0011986173
0.0060247072
0.014601889
0.025100977
0.32933074
0.3307519
0.025227264
0.014677545
0.0060543536
0.0012005441
0.0012025632
0.0060852414
0.014756077
0.025357817
0.33222552
0.33376079
0.025493337
0.014837297
0.0061171114
0.0012046494
0.0012068106
0.0061502666
0.0149212
0.025632529
0.33534418
0.33696893
0.025775654
0.015006966
0.0061839915
0.0012090413
0.0012113604
0.0062187671
0.015094931
0.025921887
0.33865142
6.8852388
6.8819465
6.8852212
6.8819113
6.8324049
6.8556059
6.8643856
6.9023397
6.897252
6.8556197
6.8061852
6.8624243
6.8972397
6.8808067
6.8294772
6.7968795
6.7678135
6.6546136
6.6889767
6.5666778
6.7444526
6.7123667
6.5141593
6.3573678
6.6578213
6.7982144
6.854753
6.740772
6.7853356
6.8189366
6.8586634
6.7759966
6.7394136
6.6221436
6.6767715
6.5510813
6.7791082
6.7462969
6.7056631
6.6534377
6.6939472
6.4192341
6.3178389
6.2509697
6.6162169
6.5636797
6.5310949
6.5777321
6.2445515
6.2979047
6.1874124
6.1310832
6.082594
6.1372093
6.4371586
6.4816126
6.4816857
6.6810907
6.8027855
6.8140111
6.7729302
6.7335558
0.29087438
0.02124398
0.012337556
0.0051351108
0.0011103438
0.0011340957
0.0052956428
0.012736907
0.021960017
0.29580969
0.30065669
0.022468737
0.013030356
0.0054121764
0.0011497482
0.001157321
0.0054705904
0.013171734
0.022697456
0.30408461
0.30627958
0.022771616
0.013224648
0.0054941616
0.0011601946
0.001161565
0.0055054757
0.013248434
0.022798683
0.30766582
0.30870704
0.02283129
0.013272217
0.0055157702
0.0011625451
0.0011635751
0.005528604
0.013303873
0.022879747
0.30957006
0.31037312
0.02293828
0.013339477
0.0055425119
0.0011646028
0.001165694
0.0055580856
0.01337949
0.023004099
0.31115203
0.31193501
0.023072872
0.013420342
0.0055738254
0.0011667749
0.0011679102
0.0055907633
0.013464036
0.023145459
0.31273092
0.31355317
0.023219589
0.013508069
0.0056077527
0.001169041
0.0011702318
0.005625915
0.013554869
0.0232974
0.31439917
0.31528111
0.023376893
0.01360218
0.0056442114
0.0011714289
0.0011726921
0.0056637214
0.013652372
0.023460321
0.31618834
0.31713338
0.02354572
0.013703275
0.0056834448
0.0011739694
0.0011753159
0.0057043619
0.013756977
0.023634941
0.31811165
0.31913122
0.023726601
0.013811716
0.0057256232
0.0011766867
0.0011781302
0.0057481188
0.013869386
0.023822423
0.32018649
0.32128495
0.023920918
0.01392825
0.005771016
0.0011796027
0.0011811495
0.0057951004
0.013989875
0.02402327
0.3224216
0.32360304
0.02412874
0.014052968
0.0058196944
0.0011827337
0.0011843943
0.0058454725
0.014118803
0.024238062
0.32482516
0.32609392
0.024350744
0.0141863
0.0058718453
0.001186099
0.0011878833
0.0058994234
0.014256607
0.024467501
0.32740945
0.32877461
0.024587674
0.014328693
0.0059276571
0.0011897172
0.0011916334
0.0059571264
0.014403692
0.024712198
0.33018963
0.3316606
0.024840415
0.01448065
0.0059873289
0.0011936041
0.0011956578
0.0060187433
0.01456041
0.024972745
0.33318611
0.33476813
0.025109405
0.014642513
0.006051033
0.0011977729
0.0011999689
0.0060844273
0.014727053
0.025249564
0.33640441
0.3380969
0.025394038
0.014813958
0.0061187169
0.001202231
0.001199893
0.0060833908
0.014724228
0.025244583
0.33636041
0.33474866
0.0251066
0.014641065
0.0060504935
0.0011977328
0.0011956321
0.006018234
0.014559108
0.024970263
0.33317928
0.33165566
0.024837232
0.014478772
0.005986513
0.0011935727
0.0011915795
0.0059560128
0.014400903
0.024707416
0.33018449
0.3287686
0.024582794
0.014325786
0.005926459
0.0011896507
0.0011878021
0.0058980235
0.014253046
0.024461362
0.3274037
0.32608724
0.024344842
0.014182807
0.0058704291
0.0011860113
0.0011843005
0.0058439921
0.014114968
0.024231417
0.32481211
0.32359113
0.024123473
0.014049911
0.0058184793
0.0011826499
0.0011810759
0.0057940877
0.013987156
0.024018373
0.32241118
0.32127434
0.023917683
0.013926417
0.0057702749
0.0011795447
0.0011780795
0.0057473712
0.013867417
0.023818861
0.3201718
0.31911326
0.023724574
0.013810517
0.0057250899
0.0011766517
0.0011752867
0.0057038082
0.013755492
0.023632186
0.31809014
0.3171057
0.023544373
0.013702482
0.0056830689
0.001173952
0.0011726761
0.0056632868
0.0136512
0.023458091
0.31616305
0.31525284
0.023375877
0.013601601
0.0056439146
0.0011714214
0.0011702216
0.005625489
0.013553698
0.023295095
0.31436767
0.31351913
0.023218404
0.013507407
0.0056074229
0.0011690367
0.0011679
0.0055902353
0.013462573
0.0231426
0.31268724
0.31189407
0.023071471
0.013419528
0.0055734238
0.0011667711
0.0011656858
0.0055575032
0.013377916
0.023001117
0.31110761
0.31032839
0.022936214
0.013338296
0.0055419751
0.0011645997
0.0011635685
0.0055278715
0.013301928
0.022876201
0.30952276
0.30865647
0.022829199
0.013270926
0.0055151576
0.0011625518
0.0011615767
0.005504677
0.0132464
0.02279508
0.30761477
0.30621533
0.022770021
0.013223489
0.00549354
0.0011602472
0.0011574198
0.0054699482
0.013170725
0.022696562
0.30398459
0.30040193
0.022470942
0.013029314
0.0054108493
0.0011499668
0.0011343311
0.0052940549
0.012737851
0.021970343
0.295258
0.28937061
0.021225824
0.012310688
0.0051207854
0.0011102036
0.0010737999
0.0048029109
0.011508167
0.019878908
0.27808675
0.28979281
0.022736909
0.013095431
0.0053813271
0.0011279927
0.0011135228
0.0052390298
0.012596732
0.021699031
0.29077984
0.29399381
0.022302105
0.012896183
0.0053490592
0.0011452926
0.001159178
0.0055044344
0.01329459
0.022963154
0.30067827
0.30420831
0.02317528
0.013425961
0.0055608288
0.0011663986
0.0011688851
0.0055843146
0.013479682
0.023250223
0.30651605
0.30795537
0.023276462
0.013501771
0.005594815
0.0011701464
0.0011711355
0.0056060601
0.013528013
0.023312486
0.30902403
0.30991145
0.023361822
0.01355925
0.0056185775
0.0011721325
0.0011731968
0.0056333325
0.013596698
0.023422229
0.31071763
0.31150501
0.023488999
0.013636419
0.0056486518
0.0011742666
0.0011753888
0.0056652264
0.013679084
0.023559705
0.31229747
0.31310924
0.023632964
0.013722476
0.0056819385
0.0011765089
0.0011776872
0.0056998297
0.013768573
0.023709645
0.3139338
0.31478959
0.023788187
0.013815174
0.0057178178
0.0011788677
0.0011801122
0.0057369727
0.013864441
0.023870138
0.31567339
0.31659916
0.023954415
0.013914533
0.0057563572
0.0011813691
0.001182694
0.00577693
0.013967391
0.024042361
0.31754971
0.31853872
0.02413262
0.014021152
0.0057977854
0.001184038
0.0011854528
0.0058198606
0.014077768
0.024226809
0.31956186
0.3206266
0.024323591
0.014135493
0.0058422954
0.0011868928
0.0011884073
0.0058659442
0.014196066
0.024424372
0.32172708
0.32287049
0.024527973
0.01425793
0.0058900342
0.0011899547
0.0011915791
0.0059153224
0.014322567
0.024635491
0.32405369
0.32528517
0.024746257
0.01438879
0.0059411665
0.0011932451
0.0011949929
0.0059682272
0.014457847
0.024861103
0.32655906
0.32788555
0.024979565
0.014528723
0.0059959447
0.0011967899
0.0011986692
0.0060248799
0.014602414
0.025102084
0.3292598
0.33068463
0.025228361
0.01467809
0.0060545475
0.0012006042
0.0012026271
0.0060855044
0.014756768
0.025359088
0.33215804
0.33368665
0.025494135
0.014837813
0.0061173539
0.0012047135
0.0012068951
0.0061506403
0.014922059
0.02563372
0.33526621
0.33689963
0.025779333
0.01501
0.0061855363
0.0012091588
0.0012114813
0.0062230147
0.01510071
0.025926044
0.33858458
0.0011998841
0.0060829597
0.014723313
0.025243289
0.33636
0.33473704
0.025103592
0.01463913
0.0060497012
0.0011976971
0.0011955754
0.0060173415
0.014556791
0.024966482
0.33316304
0.33164872
0.02483506
0.014477594
0.0059861339
0.0011935276
0.0011915645
0.0059560829
0.01440093
0.024707229
0.3301894
0.32878216
0.024584368
0.014326855
0.0059269225
0.0011896676
0.0011878503
0.0058988547
0.014255067
0.024464561
0.32742245
0.32610965
0.024349287
0.0141856
0.0058715639
0.0011860878
0.0011844017
0.005845261
0.014118225
0.024236782
0.32483653
0.32360141
0.024127087
0.014051966
0.0058192154
0.0011827438
0.0011811406
0.0057943217
0.013987923
0.024020008
0.32240665
0.3212615
0.02391735
0.013926071
0.005770115
0.0011795728
0.0011780909
0.0057473205
0.013867242
0.023818662
0.32016263
0.31910424
0.023724549
0.013810478
0.0057250794
0.0011766594
0.0011752933
0.0057038196
0.013755554
0.023632368
0.31808751
0.31710898
0.023544594
0.013702584
0.0056830991
0.0011739591
0.001172685
0.005663318
0.013651305
0.023458305
0.31616122
0.31524851
0.023375741
0.013601541
0.0056438955
0.0011714305
0.0011702309
0.0056254207
0.013553519
0.023294804
0.31435898
0.31350631
0.023217597
0.013506958
0.0056072596
0.0011690444
0.0011679078
0.0055900353
0.013462067
0.023141796
0.31267285
0.3118749
0.023070111
0.013418742
0.0055731269
0.0011667787
0.0011656955
0.0055571579
0.013377053
0.022999732
0.31108339
0.31030213
0.022934538
0.013337278
0.0055415691
0.0011646128
0.001163587
0.0055274303
0.013300837
0.02287445
0.30948875
0.30862429
0.022827398
0.0132698
0.0055146956
0.0011625788
0.001161614
0.0055042113
0.013245244
0.022793212
0.30757886
0.30618198
0.022767644
0.013222044
0.005492952
0.0011602914
0.0011574781
0.0054695095
0.013169583
0.022694616
0.30397066
0.30042989
0.022471045
0.013029525
0.0054109944
0.0011500611
0.0011345211
0.0052955775
0.012741572
0.021976391
0.29539611
0.28962404
0.021240224
0.012318425
0.0051238633
0.0011106225
0.0010749531
0.0048305782
0.01157836
0.019991502
0.27923339
0.30922931
0.01792627
0.010373945
0.004359142
0.0010494754
0.0011068816
0.0050928803
0.01225559
0.021107217
0.28474075
0.28850538
0.021210187
0.012322373
0.0051202876
0.0011035862
0.0011091487
0.0051303863
0.012326308
0.021227507
0.29066324
0.29578807
0.021962012
0.012737918
0.0052962343
0.0011337596
0.0011495216
0.0054122689
0.013030905
0.022469484
0.300665
0.30415225
0.022700139
0.013173113