/*--------------------------------*- C++ -*----------------------------------*\
  =========                 |
  \\      /  F ield         | OpenFOAM: The Open Source CFD Toolbox
   \\    /   O peration     | Website:  https://openfoam.org
    \\  /    A nd           | Version:  7
     \\/     M anipulation  |
\*---------------------------------------------------------------------------*/
FoamFile
{
    version     2.0;
    format      ascii;
    class       volScalarField;
    location    "300";
    object      omega;
}
// * * * * * * * * * * * * * * * * * * * * * * * * * * * * * * * * * * * * * //

dimensions      [0 0 -1 0 0 0 0];

internalField   nonuniform List<scalar> 
25201
(
162.87692
163.09026
162.87693
163.09034
163.50343
161.78288
161.4688
165.848
165.99616
167.15192
165.99623
161.783
162.62052
172.78514
175.51527
162.01831
163.93903
165.72562
166.17053
172.21065
167.84424
168.91902
167.23874
170.18787
169.31648
173.40362
170.97012
165.66237
166.92763
171.99632
170.90896
169.43798
179.15472
177.32381
174.97719
175.48501
170.5815
172.0819
177.73842
179.57443
173.22125
173.85324
172.63164
180.13387
180.51523
180.43356
174.48979
167.91363
163.59947
162.62024
166.72923
167.58863
169.65451
168.33751
166.96249
165.40374
163.42774
165.17657
166.91426
171.96034
169.70417
166.85162
168.54012
169.77379
171.6896
169.03371
170.33761
174.87335
173.39013
177.37135
176.01523
173.26463
166.76997
168.34268
169.4227
178.7875
176.02961
174.42448
172.67811
171.32903
169.53451
167.95679
170.59735
171.56158
173.32226
170.95695
173.0048
172.76229
175.65251
174.07679
176.57998
178.49305
178.11214
177.4699
177.32048
175.40212
174.96211
176.89008
180.52887
178.03862
178.40004
180.69737
180.7589
178.48328
178.84449
180.68821
184.96915
182.21548
180.10954
179.37713
181.49326
181.7475
184.76042
184.66116
189.34903
185.6155
185.91631
189.41321
189.45289
184.86968
181.88933
185.8886
186.21824
189.54128
194.82792
190.39817
186.72754
180.1328
174.10045
177.77117
179.61008
180.55586
180.44922
179.60213
177.75006
175.73053
173.01225
170.60874
166.85478
163.42932
165.40366
168.54073
171.96199
169.70722
165.17998
166.91504
168.33848
166.96282
166.72951
169.03386
171.69002
169.77546
173.39042
174.87634
170.33928
171.59843
167.58945
163.6008
166.77414
168.34347
176.01692
173.27113
170.95983
169.54701
167.96672
171.34432
172.695
174.43139
177.87957
176.20886
173.32654
171.5645
174.90722
171.83578
173.11314
175.33665
174.90882
174.23349
180.04186
180.60399
186.21949
183.66756
182.52849
185.32057
185.96609
189.29305
186.55285
186.14621
189.52258
194.81406
190.31872
186.76386
180.05325
174.2421
178.50291
176.60671
175.70107
189.51459
185.93973
181.93437
178.52895
178.86553
180.71086
178.1368
177.51862
180.81533
184.91952
184.99724
182.23967
186.23872
189.56801
194.84948
190.41566
190.19845
190.27115
186.32076
163.0737
162.82719
159.32556
165.64717
166.92326
172.62617
177.31237
170.89966
171.99075
173.21044
173.85312
180.51361
180.13909
179.15288
179.56906
177.72812
172.07188
170.56315
169.4255
174.96379
175.47245
172.73972
168.89951
163.91579
95877.093
30323.606
16866.335
12245.879
1993.1647
1966.1348
12017.75
16575.617
29842.029
94786.013
93931.756
29408.363
16343.692
11854.873
1935.8799
1921.666
11798.737
16256.679
29243.746
93640.072
93565.51
29192.807
16235.819
11791.991
1915.6279
1914.5094
11802.598
16241.811
29192.625
93596.226
93659.895
29208.022
16256.231
11818.189
1915.8087
1918.3351
11833.323
16272.437
29228.242
93735.225
93818.526
29250.215
16289.8
11849.168
1921.5599
1925.1249
11864.44
16307.428
29273.132
93902.261
93990.474
29296.833
16326.03
11880.887
1928.9812
1932.9913
11897.148
16344.953
29321.227
94077.893
94169.94
29346.496
16364.932
11914.737
1937.1912
1941.5115
11932.281
16385.32
29372.568
94261.833
94358.848
29399.667
16406.843
11951.185
1946.0112
1950.6326
11970.153
16428.864
29427.709
94456.588
94559.847
29456.938
16452.078
11990.48
1955.4266
1960.3417
12010.968
16475.873
29487.225
94664.447
94774.725
29518.788
16500.896
12032.797
1965.4281
1970.6401
12054.883
16526.577
29551.539
94886.995
95005.368
29585.699
16553.544
12078.307
1976.0205
1981.5269
12102.123
16581.306
29621.25
95126.648
95254.28
29658.399
16610.455
12127.322
1987.204
1993.0174
12153.028
16640.528
29697.172
95385.413
95523.3
29737.627
16672.02
12180.111
1999.0144
2005.1759
12207.806
16704.534
29779.817
95665.035
95813.415
29823.871
16738.548
12236.899
2011.5329
2018.0506
12266.643
16773.613
29869.741
95966.03
96125.436
29917.414
16810.111
12297.701
2024.7415
2031.5718
12329.455
16847.622
29966.64
96289.327
96458.768
30017.596
16886.688
12362.653
2038.5735
2045.7795
12397.208
16927.75
30072.12
96633.331
1854.6382
12599.648
16994.569
30022.811
96007.411
95845.033
29972.366
16954.798
12565.216
1848.063
1841.702
12532.44
16917.563
29926.527
95686.746
95531.306
29883.016
16882.464
12501.615
1835.5646
1829.5581
12471.358
16848.042
29840.069
95379.59
95234.075
29798.385
16814.75
12442.278
1823.6885
1817.9385
12413.737
16782.398
29758.404
95093.001
94957.898
29720.051
16751.432
12386.554
1812.3326
1806.8436
12359.869
16721.36
29683.215
94827.112
94702.87
29647.714
16692.503
12334.457
1801.4894
1796.2621
12309.495
16664.54
29613.833
94583.15
94469.098
29581.685
16638.06
12286.02
1791.2023
1786.2767
12262.984
16612.467
29551.024
94358.09
94252.13
29521.539
16588.086
12241.311
1781.5026
1776.8453
12219.865
16564.345
29493.194
94148.596
94049.635
29465.845
16541.719
12199.747
1772.3506
1767.9711
12179.807
16519.724
29439.643
93952.969
93860.539
29414.366
16498.824
12161.213
1763.7489
1759.6337
12142.679
16478.454
29390.101
93769.549
93682.27
29366.574
16459.105
12125.48
1755.6706
1751.8228
12108.213
16440.184
29343.932
93595.493
93512.091
29321.893
16422.217
12092.266
1748.1411
1744.6023
12076.128
16404.619
29300.66
93428.745
93348.884
29280.049
16387.966
12061.23
1741.2978
1738.2909
12045.915
16371.808
29260.737
93270.636
93199.998
29243.27
16357.047
12031.67
1735.8565
1734.3899
12017.823
16345.188
29232.305
93143.7
93125.679
29238.187
16342.747
12009.935
1734.8573
1739.2334
12020.744
16369.253
29298.226
93214.691
93553.56
29473.329
16460.636
12079.558
1750.3981
1770.6152
12219.543
16658.55
29836.204
94365.418
95933.142
30363.908
16931.47
12422.747
1795.7678
1892.172
13137.354
18008.149
32359.633
97392.323
95854.894
30341.792
16916.708
12414.285
1794.4281
1768.5847
12215.031
16650.559
29816.262
94307.06
93526.804
29459.026
16454.191
12075.476
1748.6942
1737.9083
12017.73
16364.593
29287.503
93196.855
93115.609
29230.304
16339.094
12007.437
1733.7031
1733.4011
12015.804
16342.273
29226.051
93136.542
93196.048
29238.468
16354.722
12030.009
1735.0016
1737.5705
12044.565
16369.925
29256.844
93267.692
93347.397
29276.969
16386.396
12060.044
1740.6651
1744.0371
12075.144
16403.332
29298.108
93427.593
93511.895
29319.886
16421.149
12091.408
1747.6451
1751.3894
12107.521
16439.323
29342.244
93595.293
93682.913
29365.329
16458.438
12124.911
1755.2929
1759.3092
12142.284
16477.99
29389.116
93770.34
93862.507
29413.787
16498.558
12160.959
1763.4756
1767.7538
12179.718
16519.646
29439.312
93955.273
94053.224
29465.867
16541.822
12199.788
1772.1798
1776.7206
12220.044
16564.604
29493.423
94152.498
94257.266
29522.149
16588.536
12241.619
1781.4102
1786.2188
12263.477
16613.155
29551.992
94364.017
94476.489
29583.142
16638.999
12286.673
1791.177
1796.2567
12310.277
16665.649
29615.573
94591.45
94712.353
29649.62
16693.663
12335.258
1801.482
1806.834
12360.734
16722.583
29685.194
94836.755
94967.765
29722.23
16752.761
12387.495
1812.3201
1817.9224
12414.769
16783.805
29760.631
95102.367
95243.174
29800.717
16816.23
12443.371
1823.6657
1829.5274
12472.537
16849.584
29842.401
95388.047
95539.726
29885.45
16884.082
12502.849
1835.5296
1841.6684
12533.721
16919.229
29928.991
95695.19
95854.154
29974.758
16956.387
12566.418
1848.0243
1854.5958
12600.624
16995.868
30024.671
96017.44
96187.88
30076.883
17036.765
12636.009
1861.2873
96711.291
30101.373
16966.471
12449.687
2040.6627
2033.2479
12413.902
16924.134
30045.521
96531.484
96357.365
29992.809
16883.863
12379.774
2026.0455
2019.0163
12346.539
16844.912
29942.265
96189.129
96026.157
29894.414
16807.996
12315.062
2012.2258
2005.5832
12284.287
16772.071
29847.914
95867.406
95715.449
29802.96
16737.458
12254.792
1999.1073
1992.7675
12225.885
16703.861
29759.843
95568.436
95427.752
29718.468
16671.707
12198.361
1986.6109
1980.5854
12171.372
16640.51
29678.759
95291.694
95161.703
29640.64
16610.688
12145.751
1974.7327
1969.0106
12120.555
16581.724
29604.072
95035.649
94915.256
29569.024
16554.121
12096.759
1963.4679
1958.0558
12073.319
16527.314
29535.4
94797.927
94685.853
29503.05
16501.767
12051.254
1952.8212
1947.7081
12029.428
16476.902
29471.977
94576.512
94472.144
29442.057
16453.244
12008.972
1942.7692
1937.9458
11988.648
16430.175
29413.293
94369.972
94272.471
29385.556
16408.259
11969.694
1933.2974
1928.7609
11950.772
16386.85
29358.85
94176.468
94084.697
29333
16366.526
11933.218
1924.4002
1920.152
11915.585
16346.615
29308.029
93993.664
93906.301
29283.746
16327.715
11899.293
1916.0929
1912.1704
11882.761
16309.12
29260.206
93819.113
93735.342
29237.196
16291.425
11867.401
1908.5151
1905.1778
11851.38
16273.959
29215.152
93652.785
93577.181
29194.489
16257.539
11836.048
1902.5179
1900.9979
11820.431
16243.314
29179.39
93514.135
93487.147
29181.079
16238.257
11810.336
1901.8037
1907.3936
11820.196
16263.831
29239.168
93564.766
93902.748
29416.419
16357.766
11881.421
1920.7338
1943.6191
12031.48
16566.417
29792.397
94763.055
96434.278
30350.795
16858.75
12252.793
1970.3548
1989.0701
12249.838
16861.267
30254.32
95435.871
94702.693
29869.553
16590.058
12026.524
1967.7795
1935.2857
11850.523
16337.158
29393.407
93877.388
93622.546
29238.544
16254.336
11797.456
1921.5054
1915.3546
11790.167
16233.446
29188.143
93553.667
93593.23
29189.933
16240.707
11802.189
1914.3253
1915.6108
11817.201
16255.1
29205.978
93656.3
93735.664
29226.715
16271.882
11833.259
1918.1854
1921.4165
11848.437
16289.032
29248.917
93816.822
93903.69
29272.107
16307.126
11864.548
1925.0603
1928.9119
11880.328
16325.471
29295.929
93989.554
94079.701
29320.55
16344.82
11897.356
1932.9603
1937.1497
11914.32
16364.556
29345.913
94169.534
94264.102
29372.198
16385.362
11932.594
1941.5058
1946
11950.927
16406.663
29399.402
94359.05
94459.424
29427.705
16429.122
11970.607
1950.6651
1955.4571
11990.422
16452.138
29457.043
94560.975
94668.222
29487.596
16476.356
12011.57
1960.4182
1965.5043
12032.936
16501.201
29519.303
94777.245
94891.993
29552.305
16527.28
12055.614
1970.7501
1976.1382
12078.607
16554.067
29586.573
95009.072
95132.072
29622.252
16582.133
12102.914
1981.6975
1987.3941
12127.608
16610.964
29659.259
95257.819
95389.693
29697.818
16641.142
12153.63
1993.2618
1999.2811
12180.187
16672.248
29737.957
95525.048
95666.94
29779.875
16704.819
12208.125
2005.4696
2011.803
12236.713
16738.433
29823.545
95813.078
95966.405
29869.201
16773.607
12266.73
2018.2959
2024.9139
12297.509
16809.956
29916.826
96124.593
96290.003
29966.516
16847.918
12329.737
2031.6907
2038.6283
12362.8
16887.101
30018.252
96460.67
96638.423
30071.796
16927.782
12397.236
2045.7515
2053.0783
12432.916
16970.186
30128.202
96821.602
96710.456
30101.037
16966.217
12449.49
2040.6203
2033.196
12413.737
16923.917
30045.238
96531.029
96357.33
29992.645
16883.714
12379.658
2025.9873
2018.9569
12346.489
16844.86
29942.286
96189.504
96026.807
29894.559
16808.018
12315.067
2012.1636
2005.5259
12284.331
16772.154
29848.173
95868.106
95716.096
29803.307
16737.593
12254.872
1999.0609
1992.7351
12225.972
16704.005
29760.191
95568.909
95428.052
29718.82
16671.857
12198.453
1986.5852
1980.5664
12171.426
16640.613
29679.028
95291.531
95161.282
29640.774
16610.726
12145.763
1974.7181
1968.9967
12120.519
16581.696
29604.096
95034.988
94914.522
29568.978
16554.054
12096.694
1963.4525
1958.0399
12073.237
16527.226
29535.325
94797.19
94685.242
29502.976
16501.679
12051.174
1952.8119
1947.7021
12029.366
16476.84
29471.939
94576.085
94471.971
29442.08
16453.22
12008.938
1942.7646
1937.9464
11988.649
16430.2
29413.399
94369.951
94272.659
29385.694
16408.321
11969.728
1933.3125
1928.7867
11950.855
16386.967
29359.07
94176.944
94085.434
29333.301
16366.702
11933.345
1924.4336
1920.2045
11915.763
16346.844
29308.411
93994.614
93907.447
29284.197
16327.99
11899.506
1916.155
1912.238
11882.992
16309.42
29260.688
93820.224
93736.5
29237.72
16291.743
11867.643
1908.5807
1905.2417
11851.611
16274.263
29215.663
93653.82
93578.418
29194.978
16257.833
11836.273
1902.5686
1901.0356
11820.654
16243.618
29179.946
93515.613
93489.553
29181.402
16238.487
11810.549
1901.8284
1907.3753
11820.473
16264.166
29239.925
93569.609
93908.139
29418.393
16358.943
11882.346
1920.7049
1943.4544
12032.599
16568.066
29798
94780.855
96410.043
30356.414
16864.668
12257.784
1970.0023
1792.0008
12425.645
16922.127
30300.06
95687.448
94312.858
29848.776
16665.768
12224.6
1769.9377
1748.5974
12074.126
16452.42
29454.364
93499.868
93190.298
29285.216
16363.352
12017.164
1737.8722
1733.7633
12006.779
16338.497
29229.395
93109.846
93137.944
29226.428
16342.588
12016.35
1733.5549
1735.1697
12029.991
16355.055
29239.338
93195.844
93270.527
29257.806
16370.585
12045.322
1737.7498
1740.8251
12060.097
16386.807
29277.913
93347.661
93430.32
29298.972
16403.976
12075.897
1744.2241
1747.7947
12091.421
16421.458
29320.615
93511.959
93597.415
29342.878
16439.82
12108.137
1751.5295
1755.3907
12124.809
16458.583
29365.79
93682.4
93771.685
29389.486
16478.308
12142.733
1759.3973
1763.5238
12160.73
16498.532
29413.995
93861.36
93955.777
29439.44
16519.787
12179.995
1767.7906
1772.1804
12199.436
16541.629
29465.839
94051.351
94152.152
29493.321
16564.579
12220.166
1776.713
1781.371
12241.169
16588.204
29521.924
94254.725
94362.759
29551.706
16612.996
12263.47
1786.1734
1791.1092
12286.144
16638.552
29582.728
94473.075
94589.053
29615.098
16665.377
12310.168
1796.1978
1801.4103
12334.649
16693.077
29648.92
94707.689
94832.444
29684.288
16722.068
12360.435
1806.7651
1812.2298
12386.626
16751.806
29720.86
94960.685
95095.228
29758.849
16782.794
12414.084
1817.831
1823.5543
12442.106
16814.722
29798.382
95233.509
95378.575
29839.651
16848.002
12471.415
1829.4215
1835.4153
12501.279
16882.132
29882.363
95528.633
95684.898
29925.867
16917.398
12532.41
1841.5667
1847.9247
12564.873
16954.448
29971.754
95843.439
96007.997
30021.856
16994.165
12599.39
1854.5082
1861.2123
12634.91
17035.32
30074.647
96180.407
2053.0796
12432.267
16969.369
30127.204
96816.48
96633.251
30070.976
16927.131
12396.772
2045.7597
2038.5803
12362.124
16886.1
30016.8
96456.996
96287.281
29965.757
16847.221
12329.251
2031.6343
2024.8346
12297.254
16809.573
29916.553
96122.416
95964.238
29869.08
16773.392
12266.638
2018.191
2011.6741
12236.678
16738.282
29823.497
95811.485
95665.34
29779.793
16704.676
12208.119
2005.3314
1999.132
12180.167
16672.118
29737.921
95523.753
95388.054
29697.734
16640.995
12153.607
1993.119
1987.2467
12127.508
16610.743
29659.072
95256.383
95130.225
29621.933
16581.847
12102.769
1981.5631
1976.0262
12078.426
16553.769
29586.272
95007.49
94890.038
29551.968
16526.991
12055.449
1970.6706
1965.4412
12032.766
16500.943
29519.038
94775.662
94666.431
29487.318
16476.129
12011.449
1960.3849
1955.4456
11990.317
16451.96
29456.884
94559.708
94457.884
29427.529
16428.981
11970.564
1950.6802
1946.0282
11950.899
16406.564
29399.339
94358.006
94262.692
29372.117
16385.297
11932.622
1941.5548
1937.1932
11914.333
16364.502
29345.913
94168.604
94078.482
29320.528
16344.8
11897.426
1933.0162
1928.9589
11880.376
16325.462
29295.998
93988.758
93902.473
29272.108
16307.126
11864.644
1925.1216
1921.5008
11848.554
16289.071
29249.026
93816.344
93734.917
29226.764
16271.94
11833.431
1918.2914
1915.7022
11817.343
16255.166
29206.115
93656.356
93593.387
29189.778
16240.682
11802.321
1914.4186
1915.4459
11790.304
16233.537
29188.373
93555.33
93625.406
29237.49
16253.876
11797.273
1921.5357
1935.4503
11851.841
16339.456
29398.43
93886.15
94727.695
29866.669
16589.683
12026.861
1967.643
1990.9097
12260.239
16876.57
30286.55
95589.734
95777.287
30285.779
16851.493
12237.488
1991.8549
1965.4132
12016.677
16572.944
29832.016
94737.526
93908.134
29401.575
16341.634
11854.043
1935.263
1921.1456
11797.875
16254.993
29239.224
93627.685
93557.725
29188.292
16233.853
11790.823
1915.1627
1914.1519
11801.653
16240.219
29189.108
93591.733
93656.772
29204.942
16254.776
11817.287
1915.5125
1918.0908
11832.626
16271.283
29225.804
93733.524
93817.261
29248.162
16288.82
11848.572
1921.3733
1925.0058
11864.012
16306.65
29271.452
93901.78
93990.041
29295.417
16325.364
11880.507
1928.8966
1932.9293
11896.909
16344.453
29320.108
94078.117
94170.108
29345.563
16364.534
11914.544
1937.1529
1941.4918
11932.241
16385.106
29371.936
94262.751
94359.981
29399.264
16406.756
11951.221
1946.0148
1950.6599
11970.345
16428.965
29427.595
94458.49
94562.124
29457.056
16452.319
11990.756
1955.4704
1960.4012
12011.404
16476.315
29487.67
94667.733
94778.676
29519.521
16501.497
12033.324
1965.4866
1970.6863
12055.579
16527.409
29552.654
94892.262
95011.527
29587.169
16554.581
12079.137
1976.0586
1981.5625
12103.119
16582.562
29623.082
95133.812
95261.928
29660.528
16611.876
12128.424
1987.2363
1993.0554
12154.274
16642.132
29699.593
95393.813
95532.027
29740.243
16673.731
12181.429
1999.0576
2005.2163
12209.206
16706.336
29782.578
95674.349
95822.93
29826.7
16740.386
12238.324
2011.5671
2018.0695
12268.072
16775.444
29872.542
95975.936
96135.476
29920.064
16811.845
12299.053
2024.7306
2031.5152
12330.681
16849.185
29969.022
96299.377
96469.111
30019.756
16888.122
12363.782
2038.5048
2045.73
12398.145
16928.984
30073.933
96643.941
96825.196
30129.763
16971.072
12433.597
2053.0851
171.27914
171.39274
171.27909
171.39253
170.46161
169.87519
169.69461
174.55105
174.57944
169.8752
171.04204
175.22806
174.57943
175.08506
174.75349
172.90114
170.69165
173.11895
175.10803
177.864
173.99885
171.87854
176.33063
179.98731
173.02296
171.11354
175.60473
176.69104
175.73417
177.94512
177.08895
178.77676
176.69406
179.40486
181.04358
183.99704
178.81928
179.53785
177.45112
175.93812
175.07455
181.30366
183.73417
182.53678
173.90209
172.58141
170.63762
169.65756
177.37633
178.70917
181.35904
180.10337
178.79676
176.03668
167.92134
169.42728
169.41981
163.58975
163.07297
162.82605
161.73494
162.59295
1964.0146
12230.854
16824.516
30293.228
96361.277
94773.022
29792.286
16564.676
12031.58
1942.5569
1921.4055
11885.563
16363.854
29429.533
93914.864
93578.31
29251.659
16270.176
11824.789
1908.444
1902.7261
11812.939
16242.749
29190.382
93492.696
93519.388
29186.483
16247.092
11823.134
1901.8143
1903.151
11837.4
16260.165
29199.883
93578.268
93655.253
29219.36
16276.374
11853.212
1905.7641
1908.9776
11868.168
16293.07
29240.545
93734.895
93820.545
29262.882
16310.768
11884.081
1912.5835
1916.4235
11899.689
16328.765
29285.915
93905.313
93994.571
29309.775
16347.766
11916.562
1920.4678
1924.643
11933.369
16367.175
29334.395
94083.334
94177.036
29360.008
16387.681
11951.519
1929.0053
1933.4864
11969.709
16408.674
29386.513
94271.083
94370.545
29414.119
16430.819
11989.258
1938.153
1942.9467
12008.928
16453.516
29442.735
94471.013
94577.172
29472.584
16477.414
12029.935
1947.9059
1952.9916
12051.175
16501.965
29503.586
94685.072
94799.006
29535.915
16527.759
12073.756
1958.2536
1963.648
12096.639
16554.258
29569.493
94915.147
95037.294
29604.503
16582.048
12120.851
1969.2098
1974.9185
12145.486
16610.652
29640.905
95162.255
95293.492
29678.876
16640.608
12171.459
1980.7975
1986.829
12197.969
16671.49
29718.413
95428.162
95569.352
29759.665
16703.805
12225.845
1993.0298
1999.3825
12254.361
16737.145
29802.64
95714.539
95866.608
29847.471
16771.98
12284.268
2005.9021
2012.5622
12314.894
16807.914
29894.111
96023.142
96186.664
29942.724
16845.401
12346.928
2019.3824
2026.3583
12379.807
16884.101
29993.277
96355.287
96530.57
30045.943
16924.45
12414.137
2033.5131
2040.847
12449.637
16966.409
30101.266
96711.164
96525.211
30044.501
16923.421
12413.374
2033.3384
2026.11
12378.809
16882.744
29991.372
96353.022
96185.805
29940.978
16844.031
12345.908
2019.0852
2012.2687
12314.259
16807.168
29893.553
96022.279
95864.48
29847.36
16771.66
12284.005
2005.6308
1999.1315
12254.316
16737.045
29802.676
95711.933
95566.023
29759.803
16703.852
12225.966
1992.8066
1986.6269
12198.184
16671.659
29718.694
95424.65
95289.506
29679.089
16640.793
12171.726
1980.6304
1974.7598
12145.632
16610.677
29640.85
95158.814
95034.115
29604.054
16581.826
12120.831
1969.052
1963.4926
12096.518
16553.976
29569.066
94912.672
94796.532
29535.677
16527.571
12073.682
1958.1284
1952.8924
12051.121
16501.854
29503.532
94683.421
94575.549
29472.578
16477.364
12029.937
1947.8365
1942.9144
12008.967
16453.535
29442.887
94470.134
94369.647
29414.312
16430.907
11989.376
1938.1611
1933.5165
11969.859
16408.822
29386.843
94270.82
94176.546
29360.358
16387.885
11951.744
1929.0524
1924.7016
11933.604
16367.42
29334.868
94083.312
93993.973
29310.237
16348.052
11916.861
1920.5548
1916.5252
11899.998
16329.087
29286.492
93905.205
93819.983
29263.491
16311.161
11884.474
1912.7129
1909.0977
11868.549
16293.5
29241.297
93734.761
93654.834
29220.169
16276.879
11853.682
1905.9023
1903.3076
11837.91
16260.756
29200.932
93579.041
93520.881
29187.692
16247.794
11823.736
1901.9915
1902.9696
11813.506
16243.537
29191.995
93497.93
93588.139
29253.801
16271.024
11825.182
1908.8701
1922.6007
11886.761
16367.065
29437.395
93939.964
94832.512
29808.563
16570.848
12033.191
1945.3274
1971.8194
12252.029
16865.966
30368.831
96514.001
98537.776
31478.334
17467.415
12682.854
2031.7865
1976.1447
11955.68
16584.801
30161.42
99421.97
95337.591
30181.593
16823.828
12223.438
1980.4094
1966.0628
12019.795
16580.342
29857.264
94708.89
93894.068
29396.584
16337.91
11851.489
1935.0914
1921.9582
11799.105
16257.342
29246.294
93638.271
93567.998
29194.244
16236.206
11792.218
1915.9283
1914.8967
11803.23
16242.829
29195.177
93600.458
93663.403
29210.059
16257.109
11818.771
1916.1797
1918.6878
11833.872
16273.235
29230.006
93737.741
93819.94
29251.601
16290.447
11849.622
1921.8688
1925.4144
11864.859
16307.986
29274.254
93903.09
93990.76
29297.721
16326.477
11881.218
1929.2292
1933.2144
11897.472
16345.372
29322.006
94078.089
94170.193
29347.202
16365.352
11915.079
1937.4088
1941.7305
11932.66
16385.769
29373.268
94262.351
94359.682
29400.396
16407.323
11951.589
1946.2241
1950.8281
11970.605
16429.41
29428.517
94457.921
94561.739
29457.857
16452.702
11990.994
1955.6201
1960.543
12011.545
16476.591
29488.286
94666.996
94778.231
29520.036
16501.729
12033.46
1965.6408
1970.8718
12055.634
16527.552
29553.033
94891.492
95010.819
29587.453
16554.669
12079.169
1976.2799
1981.8232
12103.044
16582.527
29623.178
95132.567
95260.458
29660.411
16611.716
12128.261
1987.5365
1993.3778
12153.92
16641.737
29699.091
95391.397
95528.605
29739.411
16673.148
12180.937
1999.3897
2005.5356
12208.493
16705.485
29781.292
95669.468
95817.048
29824.949
16739.269
12237.413
2011.851
2018.3176
12266.998
16774.111
29870.401
95969.001
96128.223
29917.791
16810.473
12297.973
2024.9589
2031.7482
12329.647
16847.911
29967.049
96292.824
96465.387
30018.053
16886.686
12362.572
2038.7134
2045.8443
12396.077
16925.952
30069.357
96644.616
96828.692
30115.369
16965.044
12430.888
2053.1683
96525.563
30045.761
16924.118
12413.851
2033.3731
2026.2044
12379.609
16883.811
29992.993
96351.554
96182.571
29942.261
16845.06
12346.755
2019.2015
2012.3311
12314.6
16807.375
29893.292
96019.386
95863.052
29846.425
16771.293
12283.879
2005.6362
1999.0975
12253.895
16736.39
29801.556
95711.845
95567.069
29758.586
16703.036
12225.358
1992.7464
1986.5444
12197.403
16670.674
29717.308
95426.733
95292.932
29677.857
16639.796
12170.878
1980.5384
1974.7311
12145.21
16610.391
29640.981
95161.68
95035.186
29605.042
16582.198
12120.913
1969.1012
1963.588
12096.893
16554.642
29570.2
94911.669
94795.177
29535.817
16527.815
12073.873
1958.1971
1952.9469
12051.17
16501.871
29503.369
94682.544
94575.163
29472.488
16477.347
12029.94
1947.8816
1942.9541
12008.983
16453.56
29442.927
94470.216
94370.088
29414.49
16430.992
11989.432
1938.2028
1933.5625
11969.951
16408.961
29387.128
94271.405
94177.161
29360.716
16388.062
11951.858
1929.1009
1924.7563
11933.724
16367.614
29335.285
94083.805
93994.58
29310.683
16348.252
11916.981
1920.6118
1916.5898
11900.115
16329.3
29287.011
93905.817
93820.783
29264.095
16311.394
11884.599
1912.7898
1909.1916
11868.692
16293.773
29242.035
93735.809
93656.314
29221.015
16277.188
11853.849
1906.0251
1903.4495
11838.126
16261.145
29201.991
93581.277
93524.162
29188.858
16248.209
11823.971
1902.1358
1903.0938
11813.804
16244.072
29193.548
93502.498
93594.854
29254.859
16271.234
11825.28
1908.8736
1922.3387
11886.203
16366.266
29436.865
93948.933
94839.177
29803.779
16567.44
12030.732
1944.4908
1970.4239
12246.746
16859.109
30357.491
96493.701
98499.217
31392.261
17415.519
12646.36
2024.6377
1868.7641
12962.871
17750.407
31948.159
97459.318
98850.508
30610.448
16943.377
12320.923
2003.6467
1982.7895
12308.378
16930.857
30619.248
99153.106
96312.316
30315.298
16840.905
12242.473
1965.9841
1942.8083
12031.769
16565.264
29793.52
94776.938
93911.52
29430.576
16365.306
11886.943
1921.4531
1908.1257
11823.842
16268.939
29248.726
93572.852
93489.647
29188.446
16242.265
11813.022
1902.4941
1901.6063
11822.398
16246.272
29184.71
93514.295
93576.796
29198.579
16259.831
11837.529
1903.0389
1905.6487
11852.602
16275.781
29218.262
93651.612
93734.352
29239.685
16292.871
11868.328
1908.9051
1912.4982
11883.565
16310.321
29262.154
93817.854
93905.501
29285.35
16328.688
11899.91
1916.3714
1920.4062
11916.134
16347.43
29309.281
93992.593
94083.981
29334.054
16367.19
11933.636
1924.6259
1928.9726
11951.153
16387.402
29359.651
94175.474
94271.65
29386.214
16408.69
11969.956
1933.4875
1938.124
11988.905
16430.553
29413.805
94368.995
94471.585
29442.54
16453.572
12009.173
1942.9428
1947.8912
12029.656
16477.217
29472.382
94575.911
94685.746
29503.482
16502.066
12051.439
1953.0049
1958.2431
12073.544
16527.642
29535.848
94797.962
94916.016
29569.586
16554.477
12096.971
1963.6579
1969.2094
12120.784
16582.096
29604.682
95036.816
95163.633
29641.257
16611.017
12145.91
1974.9317
1980.7946
12171.526
16640.814
29679.322
95293.846
95430.232
29719.007
16671.978
12198.464
1986.8272
1993.0082
12225.998
16704.112
29760.304
95570.505
95717.14
29803.308
16737.659
12254.863
1999.3548
2005.8515
12284.428
16772.286
29848.089
95868.183
96025.931
29894.745
16808.413
12315.373
2012.513
2019.3195
12347.105
16845.701
29943.28
96188.454
96357.992
29993.862
16884.571
12380.244
2026.3013
2033.4518
12414.289
16924.712
30046.462
96533.061
96713.005
30101.579
16966.622
12449.798
2040.7964
1861.3623
12635.437
17035.91
30075.314
96185.409
96013.137
30023.64
16995.297
12600.268
1854.7363
1848.2651
12566.248
16956.314
29974.634
95845.553
95684.105
29927.502
16918.892
12533.683
1841.9423
1835.7432
12501.934
16882.671
29882.296
95527.829
95378.201
29839.038
16848.025
12471.65
1829.701
1823.7965
12442.124
16814.548
29797.711
95233.823
95095.734
29758.121
16782.535
12414.015
1818.0504
1812.4284
12386.522
16751.53
29720.207
94962.166
94834.092
29683.779
16721.865
12360.385
1806.9542
1801.6024
12334.72
16693.069
29648.826
94709.62
94590.412
29615.198
16665.529
12310.38
1796.4
1791.3172
12286.41
16638.762
29582.913
94474.392
94363.387
29551.832
16613.207
12263.768
1786.3856
1781.5758
12241.427
16588.379
29522.045
94255.341
94152.153
29493.366
16564.726
12220.428
1776.917
1772.3867
12199.673
16541.756
29465.914
94051.459
93955.308
29439.444
16519.904
12180.242
1768.0014
1763.7383
12160.95
16498.641
29414.065
93861.04
93770.924
29389.556
16478.447
12142.994
1759.6236
1755.6164
12125.038
16458.723
29365.951
93681.832
93596.204
29343.028
16439.984
12108.407
1751.768
1748.0399
12091.658
16421.631
29320.9
93510.878
93428.722
29299.339
16404.213
12076.202
1744.5023
1741.1675
12060.48
16387.164
29278.594
93346.796
93269.5
29258.802
16371.139
12045.853
1738.1661
1735.6615
12030.64
16355.846
29240.956
93195.861
93139.071
29228.79
16343.753
12017.278
1734.179
1734.5298
12008.033
16340.179
29232.982
93113.015
93196.322
29291.043
16366.046
12019.148
1738.8226
1749.241
12075.625
16454.202
29458.228
93496.194
94307.764
29845.518
16662.279
12222.421
1770.1115
1790.1881
12408.644
16897.112
30254.89
95543.471
1870.9012
13080.433
17908.57
32128.627
96738.797
95770.255
30309.553
16900.273
12403.51
1788.2807
1767.4875
12214.773
16649.181
29817.092
94313.04
93547.633
29471.567
16459.674
12079.408
1749.5277
1739.0632
12021.577
16370.321
29299.936
93214.848
93127.324
29239.866
16343.619
12010.424
1734.8104
1734.3761
12018.183
16345.854
29233.461
93144.353
93200.564
29244.17
16357.53
12031.867
1735.8316
1738.2954
12046.112
16372.211
29261.358
93270.509
93349.016
29280.576
16388.278
12061.348
1741.3097
1744.6244
12076.274
16404.902
29301.018
93428.539
93512.164
29322.208
16422.432
12092.34
1748.169
1751.8588
12108.335
16440.398
29344.148
93595.288
93682.348
29366.823
16459.298
12125.558
1755.7034
1759.6784
12142.854
16478.715
29390.348
93769.736
93861.525
29414.74
16499.124
12161.394
1763.798
1768.0501
12180.101
16520.121
29440.083
93954.313
94052.09
29466.456
16542.187
12200.083
1772.4523
1776.9708
12220.287
16564.889
29493.877
94151.385
94255.823
29522.418
16588.707
12241.753
1781.6305
1786.4137
12263.546
16613.241
29552.131
94362.523
94474.689
29583.106
16638.955
12286.613
1791.3435
1796.4097
12310.107
16665.48
29615.397
94589.617
94710.399
29649.091
16693.266
12334.91
1801.6289
1806.9759
12360.215
16721.93
29684.212
94834.471
94964.471
29720.883
16751.924
12386.841
1812.4715
1818.0918
12414.072
16782.892
29759.091
95098.127
95237.914
29798.957
16815.247
12442.652
1823.8666
1829.7711
12471.916
16848.652
29840.49
95381.753
95531.995
29883.793
16883.505
12502.542
1835.823
1842.0062
12533.936
16919.476
29928.856
95686.88
95848.321
29975.778
16956.944
12566.702
1848.3347
1854.7998
12600.364
16995.654
30024.616
96014.754
96185.604
30075.793
17036.051
12635.465
1861.4252
96821.242
30128.233