/*--------------------------------*- C++ -*----------------------------------*\
  =========                 |
  \\      /  F ield         | OpenFOAM: The Open Source CFD Toolbox
   \\    /   O peration     | Website:  https://openfoam.org
    \\  /    A nd           | Version:  7
     \\/     M anipulation  |
\*---------------------------------------------------------------------------*/
FoamFile
{
    version     2.0;
    format      ascii;
    class       volScalarField;
    location    "260";
    object      rho;
}
// * * * * * * * * * * * * * * * * * * * * * * * * * * * * * * * * * * * * * //

dimensions      [1 -3 0 0 0 0 0];

internalField   nonuniform List<scalar> 
25278
(
1.1738865
1.1738704
1.1738851
1.1738843
1.1739069
1.1738666
1.1738787
1.1738859
1.1738814
1.1738395
1.1738531
1.1738663
1.1738748
1.173888
1.1738757
1.1738854
1.1738713
1.1738772
1.1738819
1.1738829
1.1738597
1.173865
1.1738697
1.1738525
1.173813
1.1738506
1.1738678
1.1738386
1.1739003
1.1738372
1.1737961
1.1738471
1.1737423
1.1738089
1.1737608
1.1738509
1.1738099
1.1737499
1.1737829
1.1736793
1.1737288
1.1736893
1.1737035
1.1736424
1.1737213
1.1737566
1.1738367
1.1738181
1.1737463
1.1737983
1.1737905
1.1738753
1.1737609
1.173757
1.1738333
1.1737708
1.1737433
1.1738017
1.1736703
1.1737186
1.1736899
1.1736836
1.1736867
1.1737607
1.1738445
1.1738337
1.1737534
1.1736888
1.1737038
1.1737183
1.1738639
1.173765
1.1738065
1.1737447
1.1738443
1.1737511
1.1737599
1.1738356
1.173862
1.1738973
1.1739231
1.1738718
1.1738739
1.1738739
1.1738852
1.1739163
1.1738541
1.1737921
1.1738216
1.1738955
1.1738458
1.1737667
1.173828
1.17373
1.1737548
1.1737605
1.1738596
1.173927
1.1738599
1.1737954
1.173865
1.1738202
1.1738229
1.1737902
1.17376
1.1738341
1.173725
1.1736034
1.1735845
1.1735135
1.1737673
1.1736889
1.1735713
1.173717
1.1736734
1.1736793
1.1737874
1.1737794
1.1738492
1.1738405
1.1738645
1.1738819
1.1739053
1.1738074
1.1737096
1.1735659
1.1735054
1.1737637
1.1738474
1.1739139
1.1739195
1.173893
1.1738631
1.1738622
1.1738083
1.1737805
1.173705
1.1736819
1.1735593
1.1735776
1.1736411
1.1737019
1.173765
1.1737658
1.1737356
1.1738159
1.1738396
1.1737383
1.1737291
1.1737371
1.1738603
1.1738844
1.1738279
1.1739131
1.1738605
1.1738394
1.1737617
1.1737871
1.1736426
1.1731223
1.1728146
1.1728929
1.1731804
1.1736951
1.1737711
1.1738461
1.1738747
1.1738023
1.1738118
1.1737564
1.1736921
1.1732931
1.1730179
1.1729554
1.1710746
1.1716391
1.1729456
1.1729005
1.1716593
1.1711582
1.1729196
1.1729802
1.1732408
1.1736418
1.1737913
1.1738398
1.1737624
1.1737306
1.1736337
1.1738029
1.1737314
1.1738449
1.1738619
1.1738143
1.1737701
1.1737901
1.1737001
1.172628
1.1700636
1.1698134
1.1726515
1.1737229
1.1738174
1.1737644
1.1738104
1.173853
1.1738084
1.1738993
1.1738402
1.1737874
1.1738497
1.1737372
1.173727
1.1736861
1.173809
1.1737413
1.1737741
1.1736734
1.1736987
1.1736356
1.1736443
1.1737205
1.1737996
1.1738331
1.1738083
1.1737404
1.1737119
1.1737602
1.1737471
1.1737681
1.173768
1.1736436
1.1736141
1.1737088
1.1737122
1.1737341
1.1737384
1.1738097
1.1738533
1.1738781
1.1737913
1.1738288
1.1737494
1.173713
1.1736838
1.173766
1.1737293
1.1737877
1.1736578
1.1736751
1.1736727
1.1737507
1.1737764
1.1738624
1.1737428
1.173835
1.1737045
1.1736797
1.1738148
1.1737337
1.1736701
1.1735848
1.1735931
1.1735995
1.173619
1.1735813
1.1737176
1.1736815
1.1736994
1.17372
1.1737175
1.1737182
1.1737409
1.1736664
1.1736679
1.1737079
1.1737503
1.1736843
1.1736162
1.1736036
1.1736241
1.1735839
1.1736976
1.1736717
1.1736301
1.1735328
1.1735653
1.1735512
1.1735064
1.1736028
1.173605
1.1736635
1.1737421
1.1738105
1.1738018
1.1737223
1.1737691
1.1737697
1.173719
1.1736213
1.1736483
1.1736478
1.1736861
1.1736864
1.1736552
1.1736798
1.1737409
1.1737571
1.1736668
1.173741
1.1736175
1.1736822
1.1735687
1.1736265
1.1735763
1.1736557
1.1736179
1.17374
1.1738426
1.1738078
1.1736839
1.1735678
1.1737402
1.1736642
1.1736265
1.1735774
1.1736832
1.17381
1.1737689
1.1736836
1.1734106
1.1735085
1.1734915
1.1733879
1.1736353
1.1734507
1.1736631
1.173545
1.1735448
1.1735828
1.1736035
1.1736047
1.1735092
1.1735493
1.1735449
1.1736451
1.1735533
1.1735263
1.1736065
1.1735128
1.1735257
1.173702
1.1735793
1.1735598
1.1735295
1.1735319
1.1734963
1.1736006
1.1734269
1.1734114
1.1734525
1.1735073
1.1734028
1.1734795
1.1734547
1.1735783
1.1735765
1.1735544
1.173686
1.173654
1.1735272
1.1736114
1.1735137
1.1736821
1.1737421
1.1737578
1.1735458
1.173544
1.1735813
1.173596
1.1735961
1.1735068
1.1735483
1.1736645
1.1736476
1.1734547
1.1734539
1.1734057
1.1735101
1.1735458
1.1735073
1.1735274
1.1735521
1.1735698
1.1737031
1.173524
1.1735294
1.1734966
1.1736031
1.1734287
1.1734153
1.1734377
1.1734373
1.1734107
1.1733681
1.173476
1.1735792
1.1736507
1.1735665
1.1736714
1.1735397
1.1734803
1.1735069
1.1735183
1.1735718
1.1735025
1.1736037
1.173658
1.1735856
1.173491
1.17352
1.1735461
1.1735054
1.1735767
1.1735186
1.1735758
1.1735389
1.1734712
1.1734781
1.1734205
1.173455
1.1733879
1.1735263
1.1734617
1.173426
1.1734781
1.1734444
1.1734912
1.1735174
1.173604
1.173493
1.1734864
1.1735104
1.1736284
1.1736211
1.1736697
1.1737014
1.1736536
1.1737991
1.1737572
1.173657
1.1736034
1.1735847
1.1736365
1.1737541
1.1735238
1.1736949
1.1738219
1.1736097
1.173586
1.1734205
1.1735389
1.1734976
1.1733118
1.1731717
1.1735283
1.1739895
1.1736539
1.1738465
1.173806
1.1738281
1.1736461
1.1736465
1.1736013
1.1736054
1.1735929
1.1739206
1.1737193
1.1732137
1.1732166
1.1733132
1.1735291
1.1735282
1.1735731
1.1734969
1.1735551
1.1734348
1.1734988
1.1734603
1.1735218
1.1734824
1.1736366
1.1735815
1.1733636
1.1733912
1.1732913
1.1734124
1.1734594
1.173407
1.1735426
1.1734968
1.1735373
1.1735238
1.1733814
1.1734345
1.173435
1.1735069
1.1734956
1.1735193
1.1736209
1.1735895
1.1737235
1.1737386
1.1737133
1.1736973
1.1735669
1.1736102
1.1736262
1.1737032
1.1736571
1.1736419
1.1735837
1.1736031
1.1736585
1.1735278
1.1736662
1.1736063
1.1736571
1.1736629
1.1738514
1.1736176
1.173616
1.1735211
1.1735233
1.1734883
1.1735347
1.173829
1.1736156
1.1736973
1.1731574
1.1735877
1.1734121
1.1732892
1.1732862
1.173539
1.1740185
1.173944
1.1732256
1.1731811
1.1734523
1.173189
1.1735815
1.1733753
1.1736076
1.1735057
1.1736978
1.173606
1.1737232
1.173734
1.1737381
1.1737517
1.1737708
1.173714
1.1737532
1.1737203
1.1736786
1.173613
1.1736216
1.1736908
1.1736353
1.1735989
1.1737073
1.1736732
1.1736471
1.1736923
1.1735689
1.173548
1.1735764
1.1735515
1.1735159
1.1736009
1.1736066
1.1736536
1.1735659
1.1736713
1.1735846
1.1735236
1.1735437
1.1734811
1.1735106
1.1734722
1.1735343
1.1734755
1.1735793
1.1735158
1.1734944
1.1735926
1.1736598
1.1736203
1.1735154
1.1735275
1.1735559
1.1735135
1.1735775
1.1735293
1.173387
1.1734551
1.1735744
1.1734808
1.1734205
1.1734092
1.1733649
1.1734505
1.1734533
1.1734845
1.1734136
1.1734972
1.1733582
1.1733536
1.1732606
1.1732364
1.1733093
1.173302
1.1733603
1.1734074
1.173286
1.1733523
1.1733162
1.1734174
1.1733204
1.1733571
1.1731146
1.1732736
1.1731429
1.173245
1.1733062
1.1734024
1.1733716
1.1734131
1.1734661
1.1735233
1.1735612
1.1736699
1.1735786
1.1736068
1.1734865
1.1735596
1.1735776
1.1735378
1.1734991
1.1735557
1.1734923
1.173533
1.1735451
1.1736286
1.1735115
1.1734886
1.173468
1.173591
1.1735911
1.1736388
1.1736882
1.1736171
1.1735689
1.1735341
1.1735374
1.1735289
1.1734641
1.1735277
1.1735623
1.173478
1.1734643
1.1734157
1.1734201
1.1734594
1.1733588
1.1734718
1.173521
1.1734055
1.1733718
1.1734528
1.1731952
1.1733857
1.173333
1.1733102
1.1731874
1.1733114
1.1733717
1.1734568
1.1734346
1.1734714
1.1733956
1.1733577
1.1733134
1.1734051
1.1734432
1.173483
1.1734608
1.173524
1.1735219
1.1734481
1.173376
1.1734147
1.1733108
1.1733475
1.1732715
1.1733197
1.1734965
1.1734208
1.1733064
1.1734001
1.1735941
1.1735201
1.1737001
1.173608
1.1737293
1.1737027
1.1736953
1.1735458
1.1735513
1.1735254
1.1736449
1.1736821
1.1736791
1.1736381
1.1735156
1.1735339
1.1735447
1.1734317
1.173426
1.1734744
1.1734667
1.173521
1.1736068
1.1735485
1.1734766
1.173464
1.1734886
1.1734976
1.173471
1.1734744
1.1734987
1.1735284
1.1736119
1.1735901
1.1735049
1.173475
1.173581
1.1735586
1.1734495
1.1734178
1.1734448
1.1734421
1.1735686
1.1735118
1.1734489
1.1735167
1.1734159
1.1734158
1.17344
1.1733745
1.1734079
1.1734455
1.1734508
1.1734102
1.1733254
1.1733751
1.1733696
1.1733262
1.1732763
1.1732673
1.1733706
1.1733309
1.1733395
1.1732311
1.1732778
1.1732325
1.1733496
1.1734313
1.1735592
1.1735724
1.1736176
1.1735789
1.1736595
1.173477
1.1735283
1.1735257
1.1734572
1.173447
1.1735356
1.1735173
1.173422
1.1734134
1.1735362
1.1735609
1.1736033
1.1735933
1.1736896
1.1734977
1.1735289
1.1735266
1.1734466
1.1734457
1.1735518
1.1735251
1.1734126
1.1733184
1.1733194
1.1733355
1.1733957
1.1734086
1.1734541
1.1734526
1.1735706
1.1733187
1.1733962
1.1733905
1.1732929
1.1732761
1.173217
1.1731873
1.1732674
1.1733935
1.17345
1.1734529
1.1736051
1.1733573
1.1733926
1.1733867
1.1732441
1.1732604
1.173262
1.1732984
1.173423
1.1730774
1.1732953
1.1732297
1.1732081
1.1730549
1.1732216
1.1731451
1.1731977
1.1732668
1.173327
1.1732224
1.1732979
1.1732088
1.1733379
1.1733137
1.1735269
1.1733863
1.1733039
1.1733116
1.1733072
1.1733766
1.1732494
1.1732138
1.173112
1.1730634
1.1731727
1.1732927
1.1732426
1.1734562
1.1734995
1.1733401
1.1732755
1.1733605
1.1733575
1.1732658
1.1731771
1.173176
1.1733072
1.1733349
1.1732711
1.1732797
1.1733674
1.173429
1.1734835
1.1734488
1.1734837
1.1734501
1.1734132
1.1733359
1.1733828
1.1734252
1.1734674
1.1734094
1.1735138
1.1734352
1.1732488
1.173287
1.1732549
1.1734176
1.173514
1.1734398
1.1733376
1.1734052
1.1733662
1.1732809
1.1731914
1.173254
1.1733626
1.1732555
1.1733385
1.1732627
1.1733567
1.1733065
1.1732968
1.1732979
1.1732315
1.1732231
1.1730894
1.1731842
1.1731854
1.1731018
1.1731501
1.173053
1.1731273
1.172993
1.1730837
1.1731868
1.1732614
1.1732357
1.1734121
1.1732866
1.1731758
1.1730847
1.1731519
1.1732409
1.1729289
1.1730558
1.1733553
1.1730712
1.1730165
1.1731867
1.1726541
1.1728513
1.1729311
1.1727821
1.1729155
1.1730536
1.1729782
1.1731122
1.1730059
1.1728393
1.172641
1.1728627
1.1727563
1.1729814
1.1729035
1.1730874
1.1731538
1.1731348
1.1730548
1.1732137
1.1732199
1.1733321
1.173373
1.1734113
1.173372
1.1732632
1.1733224
1.1733779
1.1732908
1.1732379
1.173106
1.1731994
1.1730811
1.1731905
1.1731722
1.1730557
1.1730733
1.173146
1.1730125
1.173159
1.1730337
1.1731705
1.1730576
1.1732125
1.1731519
1.173278
1.1730634
1.173123
1.1729266
1.1728636
1.1729833
1.1729641
1.172991
1.1727809
1.1729479
1.1730703
1.173059
1.1729244
1.1727249
1.1729009
1.1729206
1.1727597
1.1725265
1.172465
1.1727365
1.1725822
1.1728591
1.1726479
1.172924
1.1731411
1.1732868
1.1733876
1.1735326
1.1734772
1.1734395
1.1734979
1.1733712
1.17338
1.1733933
1.1733045
1.1732846
1.1732604
1.1731105
1.1731505
1.1731726
1.1729839
1.1730672
1.1731884
1.1731633
1.1730422
1.172823
1.1728571
1.1729915
1.1731425
1.1732494
1.1735554
1.173495
1.173065
1.1731373
1.1729487
1.1729023
1.1731423
1.1729822
1.1729792
1.1731883
1.1732673
1.1733932
1.1734013
1.1734513
1.1735497
1.1735505
1.1736955
1.1737357
1.1738194
1.1738611
1.17388
1.1738867
1.173856
1.1739257
1.1738735
1.1738396
1.1738886
1.1738245
1.1737664
1.1736737
1.1738568
1.1737808
1.1736727
1.1738316
1.1738363
1.1738076
1.1738615
1.1738775
1.1737899
1.1737606
1.1737038
1.1731583
1.1730288
1.1730566
1.173273
1.1728977
1.1716997
1.1711883
1.1728158
1.1738068
1.1737322
1.1736936
1.1738306
1.1738772
1.1738367
1.173812
1.1736308
1.1732356
1.1728599
1.1716448
1.171182
1.1727613
1.1731276
1.172868
1.1729563
1.1737253
1.173786
1.1736236
1.1737284
1.1738564
1.1738411
1.1737624
1.1737702
1.1736458
1.1725458
1.1702466
1.1700974
1.1727989
1.173792
1.1738474
1.1737727
1.1738779
1.1737921
1.1738017
1.1738855
1.1737611
1.1738032
1.1738496
1.1738346
1.1737543
1.1737657
1.173694
1.1736949
1.1737076
1.1737258
1.1736782
1.1736935
1.1737477
1.1737766
1.1738374
1.1737286
1.1737005
1.173639
1.1737447
1.1737512
1.1737557
1.1737396
1.1736386
1.1736796
1.1736866
1.1736507
1.1737077
1.1737342
1.1737232
1.1736099
1.1736163
1.1735612
1.1735364
1.1735206
1.1735384
1.1735547
1.1735813
1.1736967
1.1736529
1.1737021
1.1737179
1.1736217
1.1735802
1.1736035
1.1737293
1.1736802
1.1737125
1.1736112
1.1735906
1.173562
1.1734651
1.1734922
1.1734488
1.1734649
1.1734442
1.1734449
1.1734546
1.1735051
1.173496
1.1733479
1.1733514
1.173366
1.1733637
1.1732546
1.1732584
1.1732215
1.1732147
1.1730312
1.1730377
1.1731032
1.1731009
1.1728375
1.1728504
1.1729497
1.1728755
1.1726157
1.1727029
1.1727367
1.1723623
1.1726529
1.1723598
1.1724937
1.1726311
1.1728906
1.1727823
1.172919
1.1734186
1.1732408
1.1728872
1.1726018
1.1726862
1.1729081
1.1724673
1.1727193
1.1724761
1.172826
1.1731025
1.1731036
1.1732489
1.1735673
1.1731289
1.1733578
1.1728048
1.1724021
1.1724791
1.1728528
1.1733032
1.1727346
1.1732827
1.1728677
1.1732269
1.1731083
1.1733466
1.1732412
1.1734156
1.1733914
1.1733427
1.1734139
1.1734709
1.1735258
1.1735603
1.1735594
1.173484
1.1735961
1.1735695
1.1735544
1.1734907
1.173519
1.1734986
1.1734742
1.1734015
1.1734191
1.1733798
1.1734598
1.173502
1.1735365
1.1735759
1.1734762
1.1733663
1.1734666
1.1734305
1.1734833
1.1735365
1.1736378
1.1736839
1.1735282
1.1734597
1.1736018
1.1735566
1.1735323
1.1734588
1.173483
1.1735909
1.1735242
1.1735337
1.1734866
1.1734378
1.1733662
1.1733277
1.1734127
1.1734677
1.1735902
1.1735558
1.1735356
1.1736919
1.1736741
1.1737041
1.1737052
1.1737153
1.1738065
1.1738642
1.1738818
1.1738846
1.1738776
1.1738841
1.1738628
1.1738573
1.173851
1.1738613
1.1737746
1.173817
1.1737325
1.1736781
1.173663
1.1737335
1.1737394
1.1738255
1.173685
1.1736566
1.1736527
1.1737188
1.1737828
1.1738698
1.1737293
1.1737825
1.1736378
1.1736867
1.1738176
1.1737505
1.1736578
1.1735934
1.1735783
1.1735781
1.1735795
1.1735172
1.1735238
1.173487
1.1735046
1.1736327
1.1736649
1.1735157
1.1735482
1.1734686
1.1734498
1.173532
1.1734657
1.1734603
1.1734645
1.1734638
1.1734899
1.1735173
1.1736046
1.1735669
1.1735689
1.1734577
1.1734334
1.1734364
1.173564
1.1735114
1.1734379
1.1734119
1.1734354
1.1735074
1.1735126
1.1735727
1.1736162
1.1736941
1.1735174
1.1735231
1.1735226
1.1735618
1.173638
1.1734646
1.1735587
1.1735864
1.1735247
1.1735587
1.1734291
1.1733177
1.1734277
1.1734693
1.1734209
1.1734497
1.1733605
1.1733252
1.1732938
1.1733839
1.1734462
1.1734309
1.1735587
1.1734985
1.1735206
1.1734412
1.1734564
1.1734189
1.1734607
1.1734046
1.1734109
1.1733219
1.1734075
1.1734557
1.1734018
1.1733452
1.1733634
1.1732568
1.1733129
1.1732912
1.1732349
1.1732069
1.1733305
1.1734053
1.1734167
1.1733725
1.1733911
1.1734776
1.1735271
1.1734957
1.1734082
1.1734031
1.173404
1.1735275
1.1734276
1.1733554
1.1733977
1.1734377
1.173475
1.1734182
1.1733807
1.1733773
1.1734499
1.1734474
1.1733744
1.1733335
1.1734098
1.1734089
1.1733293
1.1733335
1.1734068
1.1733679
1.173373
1.173381
1.1732898
1.1732764
1.1732253
1.1733341
1.1733467
1.1732466
1.1731266
1.1731836
1.1732478
1.1733076
1.1733372
1.1733809
1.1732726
1.1732346
1.17317
1.1732832
1.1733261
1.1733847
1.173326
1.1732116
1.1733045
1.1731964
1.1732468
1.1731591
1.1731034
1.1729473
1.1730745
1.1733667
1.1733118
1.1732549
1.1733397
1.1733226
1.1732394
1.1731085
1.1732221
1.1730636
1.1731072
1.1729677
1.1729027
1.1727038
1.1729516
1.1734338
1.1732768
1.1731843
1.1732937
1.1732911
1.1731786
1.1730941
1.1732752
1.1729581
1.1729856
1.1727623
1.1726887
1.1725353
1.1727651
1.1734569
1.1732126
1.17314
1.173272
1.1733921
1.1734493
1.1735158
1.1735966
1.173688
1.1734953
1.1734715
1.1736615
1.1735679
1.1735134
1.1734292
1.1734379
1.1735575
1.1735306
1.1734975
1.1735302
1.1735362
1.1735728
1.1736701
1.1736346
1.1738263
1.1737786
1.1735874
1.173584
1.173559
1.1736208
1.1738266
1.1736079
1.1739395
1.1739117
1.173653
1.1731793
1.1731283
1.1734858
1.1734584
1.1731936
1.1734133
1.1730683
1.1736507
1.1734775
1.1737362
1.1737297
1.1737762
1.1736184
1.1736044
1.1735351
1.1735521
1.1736067
1.1737793
1.1735639
1.1735025
1.1733249
1.1732044
1.1734241
1.1734678
1.1733909
1.1734322
1.1733745
1.1734924
1.1734576
1.1735367
1.1735477
1.1735523
1.1733401
1.1733782
1.1735923
1.1735812
1.1734461
1.173393
1.1732717
1.1732817
1.1733995
1.1733905
1.1733208
1.1733966
1.173345
1.1733561
1.173451
1.1734227
1.1734718
1.1733593
1.1733809
1.1733715
1.1734237
1.1735331
1.1733937
1.1733661
1.1734924
1.173371
1.1733459
1.1732488
1.1732839
1.1733261
1.1732194
1.1732772
1.1733111
1.1733685
1.1732867
1.1733526
1.1733082
1.1733038
1.1731938
1.1731973
1.1731219
1.1731067
1.1732364
1.173243
1.1731142
1.1732036
1.1732617
1.1731697
1.173038
1.1731593
1.1730878
1.1730718
1.173085
1.1731264
1.1731992
1.1730611
1.172987
1.1728625
1.1730336
1.1731083
1.1732059
1.1731576
1.1732949
1.1732258
1.1730877
1.1730219
1.1731803
1.1732511
1.1730922
1.1729489
1.1730364
1.172916
1.1726919
1.1728248
1.1729369
1.1727926
1.1729482
1.1730211
1.1729107
1.1727933
1.1729254
1.1731293
1.1732713
1.1738985
1.1729314
1.1733836
1.1730088
1.1724608
1.1730274
1.17341
1.1720544
1.172541
1.1743342
1.1729449
1.1729196
1.1738692
1.171417
1.1716555
1.1718984
1.1707612
1.1720335
1.1729788
1.1742854
1.1726144
1.1725116
1.1715054
1.1738697
1.1729814
1.1718389
1.1688711
1.1701212
1.1738218
1.1699466
1.1686822
1.1656359
1.1642977
1.1646504
1.1701548
1.1716167
1.1740256
1.1733063
1.173978
1.1736338
1.1738595
1.173674
1.173668
1.1738708
1.1736739
1.1736202
1.1736386
1.173571
1.173541
1.1740199
1.1735265
1.1733003
1.1732904
1.1733969
1.1731477
1.1735784
1.1733621
1.1736087
1.1734991
1.1736857
1.1735916
1.1736129
1.1737065
1.1735174
1.1735341
1.1735355
1.173462
1.1734609
1.173617
1.1733932
1.1733999
1.1734075
1.1732818
1.1732072
1.1733292
1.1734196
1.1735235
1.1735469
1.1735698
1.1734563
1.1734239
1.1734405
1.1735257
1.1735413
1.1735854
1.1736596
1.1737104
1.1736311
1.1735417
1.1735428
1.173488
1.1735396
1.1736095
1.1735776
1.1734721
1.1734758
1.1734167
1.1734216
1.1733374
1.1734285
1.1733396
1.1735444
1.1734848
1.1736248
1.1736557
1.1737698
1.1737656
1.1738136
1.173671
1.1736205
1.1736024
1.1735433
1.1736717
1.1738359
1.1737081
1.1736049
1.1731841
1.1733212
1.1735132
1.173556
1.1734345
1.1735933
1.1734336
1.1737021
1.173589
1.1737563
1.1736918
1.1737894
1.1738004
1.1738667
1.1738381
1.1737619
1.1737748
1.1738123
1.1738149
1.1738049
1.1738396
1.1738414
1.1739015
1.1738511
1.1737516
1.1738537
1.1737675
1.1738134
1.1737569
1.1737142
1.1737016
1.173739
1.1738495
1.1737578
1.1737501
1.1736811
1.1736438
1.173634
1.173695
1.1738207
1.1738557
1.1738134
1.1738113
1.1737823
1.1738196
1.1736697
1.1735977
1.1735317
1.1735949
1.1736923
1.1735798
1.1736981
1.1736336
1.1737468
1.1738471
1.1737448
1.1736731
1.1736392
1.1734791
1.1735726
1.1736946
1.1736962
1.1737618
1.1736551
1.1737284
1.1737255
1.1737733
1.1737294
1.1737734
1.1736608
1.1736612
1.1736345
1.1736259
1.173686
1.1737256
1.1737562
1.1737468
1.1737189
1.1736342
1.1736999
1.1736464
1.1735326
1.1735354
1.1734855
1.1734911
1.1734436
1.1734481
1.1734112
1.1734129
1.1733962
1.173395
1.1734021
1.1733992
1.1735324
1.1735505
1.1734201
1.1733881
1.173369
1.1733997
1.1733815
1.1735278
1.1735244
1.173379
1.173346
1.1733483
1.173214
1.1732557
1.1732864
1.1733292
1.1732949
1.1731485
1.1731975
1.1731468
1.1731087
1.1730294
1.1730949
1.1732622
1.1732614
1.1732114
1.1730395
1.1731186
1.1728307
1.1727705
1.172922
1.1730123
1.172931
1.172866
1.1726246
1.1726545
1.1727633
1.17268
1.172456
1.1722237
1.1726565
1.1727082
1.1726751
1.1722556
1.1723078
1.1725297
1.172716
1.1727126
1.1728892
1.1731382
1.1731635
1.1732736
1.1732632
1.1735965
1.173216
1.1731274
1.1731442
1.1729338
1.1727698
1.1730123
1.1730142
1.1732093
1.1733341
1.1734061
1.1732853
1.1733065
1.1734161
1.1734632
1.1734763
1.1735847
1.173574
1.1734517
1.1733763
1.1733607
1.1732548
1.1732701
1.1733253
1.1734318
1.1734407
1.1734825
1.1735367
1.1735825
1.1736524
1.1736981
1.1735502
1.1735568
1.1735529
1.1734891
1.1735029
1.1735809
1.1734505
1.1734495
1.1734454
1.1733465
1.1733183
1.1734055
1.1734711
1.1735374
1.1736055
1.1736037
1.1735049
1.1734907
1.173511
1.173563
1.1735493
1.1735955
1.1736199
1.1737122
1.1736815
1.1735803
1.1735751
1.1735106
1.1735792
1.1735954
1.173558
1.1735233
1.1735459
1.1734929
1.1734871
1.1733936
1.1734977
1.1735439
1.1734816
1.1735217
1.1734501
1.1735767
1.1735075
1.1732958
1.1732974
1.1731853
1.1731838
1.1730991
1.1732878
1.1734481
1.1732716
1.1734805
1.1728641
1.1728789
1.1725269
1.1725565
1.1727625
1.1725282
1.1721649
1.1726661
1.1729383
1.1731665
1.1732041
1.1730943
1.1731165
1.1732287
1.1730472
1.1730081
1.1729003
1.1727676
1.1723593
1.1723404
1.1722252
1.1722752
1.1724806
1.1725495
1.1721694
1.1724415
1.1722885
1.1727045
1.1726113
1.1725562
1.1719502
1.1720884
1.1716498
1.1720382
1.1717985
1.1722986
1.1721524
1.1721931
1.171641
1.172275
1.1722571
1.1725733
1.1727606
1.1729454
1.1727399
1.1729228
1.1727289
1.1729279
1.1729095
1.1729298
1.1727851
1.1729779
1.1729533
1.1727507
1.1727554
1.172963
1.1727994
1.1729985
1.1731646
1.1731612
1.1729975
1.1730281
1.1729463
1.172901
1.1730939
1.1730874
1.1731269
1.1732095
1.1730551
1.1729261
1.1728839
1.1726461
1.1726741
1.1727992
1.1728427
1.1725861
1.1725265
1.1723507
1.172425
1.1727332
1.1728247
1.1725543
1.17269
1.1725413
1.1728738
1.173047
1.1732311
1.173124
1.1729258
1.172878
1.1730976
1.1732057
1.1730006
1.1728018
1.1726026
1.1726742
1.1722968
1.1721445
1.1723963
1.172238
1.1727324
1.1729641
1.1731918
1.173056
1.1727949
1.1727746
1.1730484
1.1731958
1.1731104
1.1731282
1.1731684
1.1731992
1.1733193
1.1732977
1.1731645
1.1731249
1.1732682
1.1732955
1.1732742
1.1732377
1.173337
1.1734937
1.1734612
1.173421
1.1734267
1.1734792
1.1736152
1.1736152
1.1736509
1.1734948
1.1733867
1.1734994
1.1733372
1.1733195
1.1733053
1.1733567
1.1734718
1.1733211
1.1732078
1.1732295
1.1732699
1.1733102
1.1731776
1.1732498
1.1733051
1.1733629
1.173414
1.1734531
1.1734896
1.1734463
1.1735557
1.1737009
1.1737494
1.1737863
1.1738347
1.1738513
1.173872
1.1738787
1.1738729
1.1738652
1.1738661
1.1738355
1.1737825
1.1738381
1.1738288
1.1737464
1.1736871
1.1737598
1.1738306
1.1737355
1.1737623
1.1737676
1.1736625
1.1736545
1.1736704
1.1737497
1.1737098
1.1737645
1.1737673
1.1738517
1.1738054
1.1738161
1.1737407
1.1737199
1.1738189
1.1738192
1.1738643
1.1738414
1.1738485
1.1738389
1.1738677
1.1738864
1.173857
1.1738015
1.1738409
1.1738973
1.1738611
1.173858
1.173823
1.1738631
1.1738882
1.1739089
1.1739114
1.1738562
1.1738814
1.1738667
1.1739122
1.1738877
1.1738792
1.1738704
1.1738792
1.1738788
1.1739184
1.1738962
1.1738499
1.1738079
1.1737983
1.1738162
1.1738184
1.1736956
1.1738081
1.173788
1.173831
1.1738401
1.1738385
1.1737713
1.1736924
1.1737666
1.1737631
1.1736845
1.1736683
1.1736712
1.1737749
1.1737239
1.1737781
1.1737549
1.1737426
1.1738095
1.1738264
1.1738298
1.1738571
1.1737767
1.1737293
1.1737218
1.1736275
1.173539
1.1736683
1.1736761
1.1735397
1.1735706
1.1735345
1.1736659
1.1736201
1.1736519
1.1736132
1.1735794
1.1736955
1.1737427
1.1737042
1.1737451
1.1736207
1.1735795
1.1737275
1.1735577
1.1735115
1.1736143
1.173588
1.1735327
1.173499
1.1734504
1.1736377
1.1735653
1.1736156
1.1736261
1.1736861
1.1736747
1.1737496
1.1735767
1.1735247
1.1736431
1.1737257
1.1737179
1.1736221
1.1735355
1.1736647
1.1736569
1.1735263
1.1735583
1.1735222
1.1736569
1.1736061
1.1736364
1.1736094
1.1735728
1.1736901
1.1737352
1.1736881
1.1737234
1.173593
1.1735599
1.1736861
1.17373
1.1737374
1.1736526
1.173622
1.1735919
1.173628
1.1737255
1.173663
1.1737434
1.1737529
1.1736285
1.1736723
1.1736165
1.1737218
1.1737387
1.1738628
1.1737371
1.1737907
1.1738093
1.1737282
1.173788
1.1737713
1.1737181
1.1736969
1.1736426
1.1736701
1.1735731
1.1736114
1.1735094
1.1735215
1.1735747
1.1735536
1.1736323
1.1735687
1.1737428
1.1736718
1.1736699
1.1736109
1.1736016
1.1735783
1.1735198
1.1735755
1.1735277
1.1734351
1.173577
1.173528
1.173454
1.1733933
1.1733484
1.1735865
1.1734919
1.1735682
1.1735919
1.1736718
1.1736872
1.1737363
1.1737241
1.1737346
1.1736931
1.1736269
1.1737342
1.1738049
1.1737867
1.173818
1.1737107
1.1736529
1.1737427
1.1738649
1.1738113
1.1737065
1.1737757
1.1738563
1.1737822
1.1738175
1.1738036
1.1738742
1.1738566
1.1738629
1.1738075
1.1737484
1.1737427
1.1737827
1.1738025
1.1738457
1.1737077
1.1736415
1.1737249
1.1738249
1.1737626
1.1738309
1.1739154
1.1738936
1.1738455
1.1738192
1.1738241
1.1738195
1.1737351
1.1738329
1.1738102
1.1738296
1.1738291
1.1738686
1.1738681
1.173842
1.1738552
1.1738085
1.1738595
1.1738442
1.1738692
1.1738337
1.1738674
1.1738685
1.1739002
1.1738946
1.1738492
1.1738335
1.17387
1.173832
1.1738123
1.173772
1.1738507
1.17389
1.173904
1.17391
1.1738732
1.1738781
1.1738886
1.1738245
1.1738926
1.1739286
1.1738818
1.173922
1.1739291
1.1738415
1.1739094
1.1739015
1.1739194
1.1739318
1.1739455
1.17389
1.1739706
1.1739739
1.1739539
1.1738564
1.1739164
1.1739503
1.1739222
1.1739214
1.1738612
1.1738824
1.173889
1.1738271
1.1738685
1.1739273
1.1738733
1.1739137
1.1738236
1.1738069
1.1737611
1.1737697
1.1738673
1.173844
1.1738432
1.1737641
1.1738029
1.1738045
1.1737673
1.173738
1.1738399
1.1736967
1.1737206
1.1737075
1.1736976
1.1737081
1.1736715
1.1736798
1.1737119
1.1735532
1.1736316
1.1736319
1.1735113
1.1735329
1.1735824
1.1735625
1.1735114
1.1734733
1.1734649
1.1736065
1.1735346
1.1734819
1.1734537
1.1734224
1.1735989
1.1735107
1.1735618
1.1735806
1.1736024
1.1736153
1.1735876
1.1735514
1.1734921
1.1734647
1.1735269
1.1734861
1.1735231
1.173578
1.1736563
1.1736554
1.1736469
1.173662
1.1736439
1.1736682
1.1735227
1.1735097
1.1736922
1.1736307
1.1736098
1.1736271
1.1735488
1.1735745
1.1735552
1.1736373
1.1736122
1.1735226
1.1734416
1.1734943
1.173428
1.1733889
1.1734616
1.173392
1.1734848
1.1735243
1.1734913
1.1735365
1.173484
1.1736424
1.1737084
1.17372
1.1738187
1.1736997
1.1737162
1.1738116
1.1738153
1.1738177
1.1737965
1.1738042
1.1736973
1.1737048
1.1736001
1.1736142
1.1735633
1.1735423
1.1736264
1.1737291
1.1737364
1.1735889
1.1736263
1.17361
1.1736522
1.1737902
1.173737
1.173765
1.1737673
1.173707
1.1737013
1.1737728
1.1737646
1.1737896
1.1737877
1.1738316
1.17382
1.173911
1.1738032
1.1738506
1.173882
1.1739001
1.1738373
1.1737533
1.1737551
1.1736332
1.173664
1.1737429
1.1735247
1.1735898
1.1733526
1.1734348
1.1734457
1.1735168
1.1734844
1.1733887
1.1733359
1.1733778
1.1735002
1.1734535
1.1733408
1.1732557
1.1733872
1.1734458
1.1735481
1.1735393
1.1735236
1.1737419
1.1736666
1.17367
1.173668
1.1736623
1.1736581
1.1736582
1.1736568
1.1737194
1.1737926
1.1738211
1.1738682
1.173703
1.1737321
1.1737531
1.1737076
1.1737052
1.1738683
1.1737571
1.1738066
1.1737343
1.1737437
1.1738323
1.1738922
1.1738587
1.1739105
1.1738387
1.1739576
1.1738663
1.1738571
1.1738624
1.1739566
1.1739429
1.173882
1.1738458
1.1738623
1.1738398
1.1738045
1.1738006
1.1737177
1.1737931
1.1738449
1.1738557
1.1738544
1.1737617
1.1738087
1.1738208
1.173875
1.1738558
1.1738949
1.1739119
1.1738534
1.1737922
1.173712
1.1737152
1.173719
1.1736457
1.1735557
1.1734847
1.1734016
1.1733339
1.1734395
1.1733751
1.173442
1.173352
1.1732606
1.173179
1.1732692
1.1734022
1.1733357
1.1731702
1.1730156
1.1728461
1.1726185
1.1728813
1.1727003
1.1723526
1.1723029
1.1725166
1.1721593
1.1724977
1.1725021
1.1727086
1.172743
1.1728162
1.1726317
1.1727733
1.1725735
1.1724259
1.1726527
1.172423
1.1726429
1.1727611
1.1732412
1.1728428
1.1726661
1.172849
1.1725578
1.1727249
1.1725949
1.172384
1.1722158
1.1724267
1.1729925
1.172314
1.1725739
1.172421
1.1726529
1.1729259
1.1722547
1.1724798
1.1721351
1.1718983
1.1721035
1.1718485
1.1721044
1.172398
1.1725976
1.1723662
1.1721673
1.17187
1.1721027
1.1723543
1.1721198
1.1723703
1.1721246
1.1718889
1.1722432
1.1724686
1.1721367
1.171881
1.1715174
1.1717469
1.1714931
1.1712569
1.1716033
1.1711425
1.1714285
1.1717301
1.1721251
1.1723687
1.1721931
1.1717649
1.1720715
1.1726147
1.1716242
1.1721895
1.1715286
1.1720111
1.1718548
1.1715644
1.1717446
1.1722556
1.1727958
1.1717662
1.1729414
1.1717512
1.1712966
1.1709456
1.1715155
1.17219
1.1716737
1.1721523
1.1729673
1.1726309
1.1733117
1.1724549
1.1721235
1.1718491
1.1722984
1.1728207
1.1717158
1.1719194
1.1714201
1.1717967
1.1715137
1.1710381
1.1706696
1.1713323
1.1727968
1.1721769
1.1733084
1.1720861
1.1725608
1.1728951
1.1728897
1.1731428
1.1732746
1.1731836
1.1729476
1.1726983
1.172425
1.1724576
1.1718467
1.1717607
1.1721557
1.1725235
1.1725277
1.1733703
1.1731341
1.1731281
1.1731146
1.1732551
1.1733791
1.1734367
1.1735064
1.1734729
1.173471
1.1736731
1.1735773
1.1734992
1.1734186
1.173423
1.1733891
1.1735035
1.173508
1.1735404
1.1735126
1.1735187
1.1736801
1.1736746
1.1737105
1.173691
1.1737283
1.1737295
1.173715
1.1736502
1.1734857
1.173493
1.1736518
1.1736202
1.1734843
1.173504
1.1736176
1.17367
1.1735312
1.1735524
1.1737012
1.1737206
1.1736977
1.1737355
1.173827
1.1737472
1.1736488
1.1736486
1.1736792
1.1736575
1.1735162
1.173548
1.173532
1.1735702
1.1735842
1.1736912
1.1737521
1.1736979
1.1737553
1.1737945
1.1737249
1.1737777
1.1738317
1.1737141
1.1737616
1.173645
1.1736721
1.1736552
1.173738
1.1738398
1.1737015
1.1738256
1.1737136
1.1737792
1.1735142
1.1735781
1.1736293
1.1737095
1.1737245
1.1736444
1.1735671
1.1736026
1.1735144
1.1736325
1.1737243
1.1733241
1.17343
1.1735108
1.17363
1.1737788
1.1736423
1.1737783
1.1738327
1.1737897
1.1738279
1.1738932
1.1738255
1.1737882
1.1738
1.1737958
1.1737165
1.1736951
1.1737328
1.173688
1.1735888
1.1736474
1.1735802
1.1736073
1.1736145
1.1736088
1.1735716
1.1736831
1.1735763
1.1736648
1.173591
1.1736744
1.1736365
1.17355
1.1734947
1.173442
1.1734757
1.1734878
1.1735868
1.1735481
1.1735249
1.1734847
1.173384
1.173385
1.1733033
1.1733109
1.1733826
1.173259
1.1731807
1.1731709
1.1732478
1.1733744
1.1734264
1.1735718
1.1735802
1.17334
1.1733369
1.1733627
1.1733575
1.1734184
1.1735371
1.1732808
1.173341
1.1735489
1.1734134
1.1733438
1.173245
1.1732378
1.1733639
1.1734115
1.173417
1.1733886
1.173308
1.1733021
1.1731754
1.1731833
1.1731193
1.1731031
1.173089
1.1730935
1.1732502
1.1732613
1.1732218
1.1733244
1.173315
1.1734669
1.173469
1.1734305
1.1733339
1.1733367
1.1733136
1.1732942
1.1732947
1.1733616
1.1734762
1.1733091
1.1733106
1.1734739
1.1733629
1.1733542
1.1734554
1.1734106
1.1733367
1.1733207
1.1733322
1.1734902