/*--------------------------------*- C++ -*----------------------------------*\
  =========                 |
  \\      /  F ield         | OpenFOAM: The Open Source CFD Toolbox
   \\    /   O peration     | Website:  https://openfoam.org
    \\  /    A nd           | Version:  7
     \\/     M anipulation  |
\*---------------------------------------------------------------------------*/
FoamFile
{
    version     2.0;
    format      ascii;
    class       volScalarField;
    location    "180";
    object      nut;
}
// * * * * * * * * * * * * * * * * * * * * * * * * * * * * * * * * * * * * * //

dimensions      [0 2 -1 0 0 0 0];

internalField   nonuniform List<scalar> 
25278
(
6.7846924
6.7771728
6.738278
6.7382308
6.7283568
6.7773075
6.8182122
6.7847193
6.8181153
6.8800707
6.8493789
6.7988889
6.7837249
6.7631676
6.4709287
6.7382999
6.7773212
6.6436864
6.2552828
6.7463533
6.8291798
6.8500008
6.8211586
6.840472
6.8890764
6.8403918
6.8212124
6.8647716
6.8681053
6.9047572
6.8858178
6.8310965
6.634724
6.7821834
6.8337924
6.8263429
6.8663449
6.8240823
6.7798477
6.607241
6.7153325
6.7640539
6.6751097
6.7238783
6.8587762
6.912482
6.8718764
6.8599683
6.8673926
6.8270667
6.7704911
6.682692
6.2067955
6.4100941
6.7096538
6.7656852
6.6931008
6.6336115
6.3384261
6.4795125
6.5566427
6.4301767
6.3166378
6.636497
6.568077
6.5285187
6.5979884
6.2490066
6.1447961
6.2184491
5.7352159
5.9442103
6.1693473
6.3769511
6.5512969
6.6568843
6.8351857
6.9056073
6.850287
6.8131804
6.7572349
6.4759976
6.6479857
6.2755325
6.7581781
6.6794345
6.003817
5.2004287
5.7103092
6.218232
6.2880125
5.7630879
5.6995868
4.7654509
4.8826491
5.7741641
5.9259162
6.3985925
6.4626275
5.994766
5.9144515
5.023868
5.1856334
6.0066522
5.4726901
5.4119087
5.2579373
3.9053732
3.8169452
3.0832686
4.7596882
4.7725545
3.0774322
3.0860857
4.0172649
4.1484166
3.1013154
4.9417397
4.9254984
4.9202123
6.2725778
6.7578124
6.7283313
5.6857185
4.749297
3.8050117
3.0768169
4.7556164
6.0006296
6.6789922
6.756707
6.8129539
6.6452555
6.4724138
5.7014619
5.192421
5.2489164
4.7679094
3.0693474
3.8918711
4.0017209
3.076121
3.0888951
4.935229
5.4620211
5.4025586
5.9168646
5.7648764
4.8655856
5.7487549
6.4647685
6.211006
6.2810195
6.3923467
6.639311
6.4567709
5.9972733
5.1670862
4.1303383
2.6076833
1.3578598
1.3655123
2.6210672
4.1000516
5.434296
5.3779064
4.8659478
4.8743919
2.9919944
2.9923126
3.9752288
2.5677987
1.4158261
1.3014319
0.51593003
0.5889409
1.4752709
1.4690267
0.60292309
0.52993146
1.3136362
1.4238459
2.5570161
3.9470844
5.0060104
5.9009044
5.9813677
5.4083232
4.0689642
2.9427657
2.9501134
4.8222149
6.2392616
5.3532649
4.8255837
5.0322601
2.9506825
1.2040707
0.46683051
0.45278478
1.1874579
3.0089212
5.0829897
5.628494
6.1778968
6.5704645
6.7838585
6.8692597
6.8348049
6.888524
6.8303449
6.6424635
6.7207038
6.7685855
6.8695251
6.8298703
6.786743
6.6174179
6.6837008
6.7308721
6.8093755
6.8761893
6.9208831
6.8720232
6.9233799
6.8751715
6.9049901
6.9142735
6.9142506
6.8926352
6.8972
6.8221841
6.7586648
6.8698126
6.8634631
6.8142759
6.8707808
6.8609797
6.830771
6.753575
6.8322238
6.7197641
6.4283932
6.4959886
6.57103
6.7741484
6.7047176
6.6472159
6.3621651
6.4509633
6.3422975
6.6500479
6.7771301
6.6920099
6.233679
6.5840385
6.2475885
6.1746553
6.5446446
6.6116021
6.2751578
6.356192
6.4187307
6.5192597
6.6298919
6.6675736
6.8253465
6.7671834
6.753898
6.7038876
6.8271806
6.8307736
6.8729487
6.8408815
6.8833229
6.8761215
6.9018992
6.8323584
6.8375471
6.7716668
6.7740607
6.6923232
6.8351303
6.7831562
6.7892726
6.5919637
6.6861053
6.6128823
6.6695759
6.7154245
6.7263705
6.744349
6.874565
6.9229555
6.9202228
6.8751777
6.8900295
6.8951444
6.8661514
6.7533276
6.8193834
6.8057494
6.6775227
6.7281679
6.7053627
6.687057
6.6638643
6.631397
6.4713858
6.6222088
6.3829156
6.3065415
6.0380874
6.1647834
5.7676177
6.1308183
6.3876957
6.6274032
6.5573304
6.1890469
6.311809
6.0547596
6.3906525
6.4834998
6.1796244
5.7807916
5.6434766
6.0256773
5.3884345
5.6289362
5.1070024
5.2779217
5.6721155
5.8723369
6.0755152
6.2405477
6.3986258
6.5277743
6.5627569
6.4844272
6.6046213
6.5693718
6.4386796
6.2857635
6.3332051
6.4414809
6.467543
6.4983473
6.4709225
6.591939
6.6044533
6.6974312
6.6458724
6.6345567
6.5150198
6.5346648
6.3919865
6.4898007
6.3410865
6.3225796
6.2847603
6.1548398
6.0960003
5.893317
5.9509569
6.1267938
6.2247331
6.4715283
6.6816071
6.7084724
6.5013663
6.4787654
6.5991447
6.6931966
6.67086
6.6394091
6.5370909
6.5709653
6.4968112
6.6149648
6.5809323
6.4526363
6.3017608
6.4087168
6.4504196
6.2942089
6.2509377
6.1138825
6.1708942
6.3475764
6.3804727
6.5258524
6.6435697
6.6536097
6.7027047
6.6106608
6.5440763
6.4029851
6.4965059
6.3482271
6.3307225
6.2083118
6.2344214
6.254419
6.3719551
6.5385412
6.5324704
6.7256081
6.7213759
6.7149402
6.6269117
6.626963
6.5577124
6.5647381
6.6691947
6.6787782
6.6737169
6.7175649
6.6319584
6.635717
6.5707796
6.5724697
6.4413758
6.525128
6.524328
6.5178895
6.5131991
6.4191757
6.4295173
6.2675818
6.3750209
6.3878748
6.3865583
6.284643
6.2781197
6.4370039
6.3404956
6.496822
6.6252873
6.6154031
6.489001
6.4788411
6.4628135
6.5959903
6.5824176
6.5513644
6.5108811
6.3021817
6.194047
5.6679745
5.7553024
5.8866823
5.552857
6.1014183
5.9822425
5.3994531
4.6870392
5.2033373
4.3213179
4.5293501
4.681995
5.340745
4.8240576
3.9612463
3.8038062
3.0248091
4.1446975
5.066868
5.7846403
5.1521954
5.6595741
5.786153
5.9100918
5.2130755
4.9705531
4.8205072
3.7240374
3.1367539
2.2925198
2.2844008
3.0875013
4.2467756
3.7826118
4.3291739
4.5342173
4.7855186
5.0381082
5.2893311
5.5138383
5.7261783
5.9114297
6.0847649
6.1352699
5.9287211
5.8784526
5.6683839
5.7372194
5.9673986
6.0096797
6.1749486
6.2796142
6.1676204
6.190937
6.0268368
6.2219908
6.1940454
6.367702
6.2508195
6.4255117
6.5702908
6.6584745
6.8199659
6.8072948
6.7444605
6.7598871
6.5526301
6.5018277
6.6178958
6.4954289
6.2794607
6.0657275
5.4944349
5.8534827
5.7207439
5.3392551
4.9840045
5.130002
5.8632495
5.7374749
5.608216
4.7312894
4.881024
3.6370972
4.1172968
4.7412128
5.300211
5.1628573
4.2661128
4.6071964
3.7198628
4.4982766
4.6483469
3.8707803
2.9323013
2.8881832
4.0251275
3.591157
2.1360729
2.1085669
2.6740871
3.4465635
4.1917478
4.7904845
5.3109175
5.7044563
6.0285577
6.3344384
6.6585066
6.8228734
6.8283917
6.8709949
6.9131411
6.9032948
6.9006163
6.8740053
6.8803861
6.7677192
6.8354128
6.8307226
6.7711422
6.6877093
6.8321796
6.8367914
6.7838153
6.7793781
6.5970287
6.5822427
6.6794224
6.603989
6.6629736
6.7108415
6.7239516
6.7239536
6.7180965
6.7111018
6.6636723
6.5580463
6.6224492
6.6217074
6.5496551
6.4098762
6.5075248
6.5363339
6.5309815
6.5204444
6.6321414
6.6289273
6.7148181
6.6698192
6.6740022
6.5652474
6.5679603
6.4361933
6.5219599
6.383274
6.3838261
6.3700184
6.5131466
6.4216636
6.2586762
6.2437047
6.3658611
6.2159539
6.318117
6.3267409
6.2398817
6.2252597
6.0711159
6.0523199
5.8360838
6.0290819
5.9954493
5.9735195
5.9228821
5.722243
5.6520936
5.4046249
5.4719795
5.7325716
5.4818997
5.4153993
5.1135484
5.1950902
5.2502739
5.5240966
5.7705246
5.9948765
5.8060596
6.0441363
5.9996104
6.2108889
6.3904995
6.5375561
6.4531729
6.4085793
6.2276977
6.3414136
6.1596427
6.0161656
6.074959
6.2856261
6.3252277
6.4918106
6.5088528
6.5855855
6.4493884
6.3533621
6.2501497
6.436591
6.4152861
6.373804
6.3237024
6.2315477
6.2831268
6.0577502
6.1730099
6.1138105
5.9900456
5.70594
5.8660337
5.926527
5.7724699
5.4284606
5.6332243
5.8254408
5.7514446
5.9385527
5.6964543
5.75639
5.5380362
5.4679936
5.1336095
5.4168596
5.4861156
5.21859
5.2773254
5.5933583
5.8754999
6.1197633
6.1540854
6.2798266
6.0778053
5.9154471
5.7361862
6.0172743
5.9770345
6.2173127
6.1065999
6.3302099
6.3536024
6.1440458
5.8738992
5.827785
5.4897732
5.689357
5.3543425
5.2926343
5.2242619
5.5602005
5.3431446
5.139071
5.5534925
5.8791751
6.1519632
6.3971849
6.6928458
6.7126157
6.6799967
6.3994805
6.456962
6.4949525
6.7394634
6.7381289
6.7100832
6.710346
6.4426311
6.4693977
6.5169377
6.3602492
6.4193614
6.4891219
6.5532155
6.6190638
6.6080002
6.537529
6.5323849
6.3755808
6.4674229
6.4794391
6.3914054
6.4045731
6.4889038
6.4942616
6.6172698
6.5518683
6.4130965
6.3279029
6.4912009
6.4233125
6.2422194
6.2247132
6.315175
6.2976154
6.471551
6.462449
6.3851909
6.3964772
6.2018945
6.1761974
6.2770805
6.0505896
6.1812062
6.3016667
6.3181276
6.2028885
5.9761083
6.125038
6.1041558
5.9482674
5.7768272
5.812936
6.0786401
5.9493261
5.9139496
5.5925338
5.543439
5.3455207
5.7318678
6.0421569
6.2852501
6.2580713
6.2082211
6.1348841
6.077784
5.7758902
5.8504127
5.9471018
6.0001094
5.9066854
6.188951
6.2178791
5.9523674
5.8857064
6.1751403
6.1439988
6.0882456
6.061168
6.0012766
5.665604
5.7421861
5.7786331
5.8372467
5.8019018
6.118432
6.1501599
5.8515608
5.4532336
5.5043308
5.6030834
5.5469842
5.6800835
5.6200089
5.4839624
5.4140634
4.9374515
5.0274152
5.220271
5.2857164
5.0948591
5.1587929
5.009739
4.9435933
5.4451616
5.3799038
5.3266339
5.2568795
4.7079424
4.7958142
4.8755234
4.2482338
4.4713702
4.7426463
5.0249773
4.9499083
4.4804336
4.8362655
4.913925
4.5715883
4.6377752
5.0908498
5.150862
5.4072627
5.6385963
5.8444655
5.5820592
5.8061715
5.5643053
5.8140509
6.0000851
6.1973626
6.0398695
5.8183199
5.7840696
5.9786562
5.7830972
5.5333128
5.5726321
5.2950207
5.3332287
5.5979873
5.8455255
6.0330068
6.2214066
6.229827
6.0406767
5.8675682
6.0804881
6.0634937
5.846546
5.6053799
5.6318884
5.8628639
6.0373363
5.8586377
5.8786907
6.0868367
6.2708843
6.4305882
6.330677
6.3397245
6.2340803
6.2204013
5.9995009
6.1418766
6.1547703
6.2788651
6.0978743
6.2429276
6.0615206
6.0602451
5.8844555
6.0628659
6.2435294
6.2458463
6.0636181
5.8988192
6.1039024
6.0944149
5.885844
5.6548558
5.6729054
5.8936647
5.6687884
5.8931173
5.6981236
5.9403758
5.9228734
5.90138
5.8756042
5.6775044
5.7116663
5.4123382
5.6488174
5.6180397
5.3716891
5.3272547
5.035285
4.9778614
4.5714186
4.9341395
5.2472915
5.5393043
5.1901737
5.124995
4.796518
4.8725755
4.5092406
4.8723922
4.7978315
4.4194481
4.0163685
4.4392534
4.5061004
4.0854366
4.0146175
3.5171484
3.5987274
4.0892784
4.1525831
4.571704
4.931834
4.9822817
5.294187
4.9876705
4.6277263
4.2125027
4.6312468
4.2112022
4.7012042
4.7653794
5.2086703
5.4552298
5.4999649
5.2653946
5.6383474
5.6809577
5.9807037
6.1024936
6.1223085
6.0078045
5.7197427
5.8730174
6.018839
5.7677607
5.7417541
5.4494431
5.6756337
5.4028978
5.6496722
5.6254783
5.3663584
5.3954643
5.420296
5.1401457
5.430883
5.1674256
5.4826828
5.24173
5.5791501
5.5413824
5.8449755
5.3208381
5.373664
4.9676373
4.8996368
5.1935045
5.1424343
5.0897127
4.6899919
5.0369191
5.3347251
5.3707692
5.0833158
4.7317338
5.0685351
5.0273041
4.6805322
4.2728397
4.3350348
4.7489864
4.3490384
4.8316641
4.4764308
5.01175
5.4585403
5.8214015
6.1102774
6.334812
6.319507
6.2567887
6.2743199
6.029672
5.993973
6.079297
5.7784957
5.6554963
5.7050875
5.2871199
5.22248
5.402645
4.9428486
4.8764775
4.8111288
4.5378469
4.6047753
3.937069
4.3274987
4.2624089
4.198482
4.1254052
4.6747386
4.4045571
3.7454096
3.8228316
3.8774858
3.5415737
4.31134
4.3765299
4.2511681
4.9307543
4.863806
5.3926557
5.4004643
5.8064653
6.1209097
6.4018757
6.6808219
6.8234074
6.8602374
6.8296425
6.6468309
6.2604674
5.9290646
6.4027796
5.9236839
5.3931236
4.8770228
4.888215
5.4520191
4.1300393
3.0201493
3.0147908
4.0009346
5.0349509
5.1958992
6.0035362
6.4655696
6.6496075
6.0080129
5.4689051
4.1508196
2.6462309
1.3235693
1.4351197
2.5896314
1.4900005
0.60864799
0.53606676
1.380564
3.0978201
3.0865772
4.022872
5.4113402
6.2748016
4.9227657
5.3467126
3.9341427
2.550732
1.478483
0.60785541
0.53503151
1.3672736
2.6000574
1.2932423
1.4066059
2.931361
2.9190804
4.0538089
5.40114
6.2373315
4.8145438
4.8164954
5.0230851
2.9210354
1.1804838
0.47184654
0.4736985
1.2121688
3.0446868
5.098631
6.2115133
6.6839842
6.7713677
6.8289017
6.7487076
6.4173153
6.6382798
6.571937
6.5298915
6.5991489
6.6399779
6.3242813
6.2521243
6.1480581
6.2266453
6.3476898
6.4385781
6.6970893
6.7693484
6.7138975
6.4872612
6.5635621
6.6238091
6.8103098
6.8685906
6.8717263
6.8286657
6.7110406
6.7104736
6.7392053
6.7411483
6.7149029
6.6957234
6.6594867
6.3372233
6.4039826
6.4625611
6.4990612
6.4444293
6.4705535
6.5196395
6.5997056
6.7805568
6.7856354
6.7624132
6.7477076
6.5091891
6.5584489
6.6630126
6.8222063
6.8385069
6.8332959
6.6897629
6.6826984
6.586393
6.3944668
6.3291827
6.2654632
6.2222358
6.1945446
6.1925071
6.2157861
6.2358257
6.2132275
5.9387038
5.9695633
5.9303952
5.8978048
5.5114605
5.5606432
5.6152006
5.5683331
5.0735333
5.1478763
5.0773606
5.0001787
4.3235443
4.4490559
4.676418
4.7545646
4.0896684
4.0066851
4.3982025
3.7875145
4.2774649
3.7762554
3.713255
3.655367
4.1485867
3.6644021
3.6104307
3.5656806
3.0847
3.1134506
2.418085
3.0318925
2.9922448
2.3903179
1.8767183
1.8442076
2.6642017
3.5002098
3.3159359
4.1273379
4.074436
3.2643442
2.4223698
2.3925641
1.4739248
1.5215339
0.87063332
1.2595821
1.8451033
2.5018459
3.0807265
3.6142795
4.0533021
4.4613957
4.8141574
5.1513708
5.446763
5.5147934
5.7842527
6.0246456
6.2322517
6.4080752
6.3607519
6.2539898
6.4290434
6.4716281
6.3094199
6.3464231
6.4409422
6.2698407
6.2965602
6.0977721
6.0666065
5.9092933
6.1468971
6.1049018
6.0486478
6.1828931
5.9655066
5.7912721
5.862232
5.684643
5.9668114
6.2038882
6.3966872
6.3490153
6.1473785
6.0316979
6.2621583
6.3111392
6.0959592
6.141284
6.2451074
6.4356773
6.5081168
6.5229697
6.3718506
6.1780408
5.9456756
5.779556
6.0500878
6.274556
6.4542582
6.5660966
6.4737111
6.7211305
6.6884435
6.6696283
6.6689694
6.8267357
6.8609075
6.7773493
6.7383148
6.7847313
6.8182818
6.76348
6.8214493
6.8502483
6.8305993
6.691271
6.7765462
6.5438056
6.2311589
6.1729454
6.2734594
6.6108621
6.6478394
6.5817073
6.2431226
6.3380811
6.4455939
6.701907
6.8309836
6.7520491
6.4237335
6.6441559
6.3564831
6.490531
6.7166343
6.7713282
6.5659638
6.6251621
6.5142929
6.4146954
6.3546582
6.4148396
6.416285
6.4545209
6.5069174
6.7456535
6.7423512
6.5248089
6.6035569
6.499343
6.5614703
6.547567
6.5443872
6.3913774
6.4046381
6.4153694
6.4217353
6.5006015
6.6223629
6.5584882
6.4993266
6.3391254
6.329396
6.3150801
6.4839933
6.4775647
6.2980148
6.202784
6.4039159
6.3754966
6.3552622
6.2865941
6.2399623
6.1865691
5.927379
5.9919818
5.8997505
6.1693809
6.1152927
5.8288729
5.4865832
5.6183131
5.7603813
5.9090096
5.6143056
5.4144984
5.4964431
5.8239726
5.8754625
6.0138182
5.7370783
5.5538577
5.6025467
5.9168333
6.174764
6.0788357
6.3103524
6.245292
6.2200467
5.9520637
6.0411805
5.7382273
5.6821578
5.3047709
5.2257862
5.0371608
5.124873
5.5538317
5.6128472
5.663637
5.7848039
5.4212641
5.3665796
5.1892244
5.2483768
5.1048848
5.5672871
5.9274639
5.9931757
6.0295105
6.111127
6.3408976
6.3524694
6.4119526
6.2240734
6.2427694
6.4318551
6.4331043
6.2563558
6.0285036
6.1378169
6.2453468
6.3475036
6.1641851
6.1537578
6.1396477
6.3300496
6.3159052
6.1214671
5.9747949
6.2018213
6.2202723
5.9985171
6.0178964
6.2345801
6.122205
6.1027934
6.0790878
5.815192
5.8458526
5.6843823
5.9813054
5.9516158
5.6454948
5.2816238
5.5054559
5.7101453
5.895643
5.8672918
5.8314539
5.5659246
5.6063131
5.369442
5.6752972
5.6336421
5.5812969
5.2664947
5.1836027
4.8459458
4.9207281
5.215617
4.8889409
4.5503167
4.4608185
4.088507
4.517288
4.9104501
4.9875558
5.355811
5.1117122
4.6767197
4.5857256
4.1295209
4.2030863
4.5849636
4.1638952
3.7152893
3.62922
3.143642
3.7178896
4.2610937
4.3383349
4.8541471
4.6034731
3.9931057
3.9090119
3.2709133
3.3140224
3.7716621
3.195381
2.6221882
2.5766478
2.0746156
2.8752824
3.622178
3.6850155
4.3893757
4.977939
5.452235
5.8291944
6.1232447
6.0665907
5.7585812
5.716665
6.0372304
6.0939471
5.7895901
5.8452567
5.8837815
6.1754368
6.2029246
6.1758059
6.1477075
6.1465009
6.0926327
6.0358398
5.78277
5.6563049
5.1449355
4.8146166
4.963804
5.1979185
5.9019089
5.7766606
5.0525741
4.1230216
3.7139172
3.121251
2.2781852
2.2664389
3.7701397
4.221561
3.0540952
2.9971194
3.7756936
4.6644123
5.3837972
5.9728548
5.6566262
6.1853336
6.2935489
6.0918508
5.536604
5.8729685
5.7413771
5.1838145
4.3001442
4.5040394
4.6554655
3.9293921
4.7990812
5.3206127
5.4942613
5.2669538
5.0132752
4.7599603
4.5107743
4.3118878
4.1969518
4.2032576
4.8057713
4.8946174
5.3857173
5.3274438
5.394417
4.8915589
4.9564744
5.0432775
5.5133927
5.4563033
5.5114717
5.8903499
5.9313553
5.9668867
6.2394965
6.2802024
6.2936278
6.0595138
6.1369351
6.1602323
6.3744735
6.3790019
6.1782583
6.1097225
6.3262558
6.319837
6.0872205
5.7908144
5.8940502
6.0069385
5.7193768
5.8722598
5.8945373
6.0334122
5.7861626
5.9513039
5.9367936
5.918349
5.6673094
5.639474
5.40987
5.4456694
5.7396757
5.7649833
5.4773941
5.6907822
5.7101529
5.5050332
5.1927144
5.4425595
5.4174896
5.3882325
5.3548476
5.3164835
5.2714122
4.947761
4.9973198
4.666759
5.0316774
4.9805861
5.3227028
5.0491774
5.4142208
5.462736
5.1029252
4.8025203
5.2300769
5.1746045
4.7419699
4.2681288
4.6494308
4.7070023
4.2869409
4.2276343
4.6121221
4.2196986
4.5918254
4.5293264
4.1313216
3.7354003
4.1561752
4.0786623
3.9179968
3.7865074
2.7206976
2.9056086
3.0175159
2.2198594
3.0748091
2.9597312
2.1113982
1.2697421
1.9199064
1.9090669
0.93282678
1.054705
0.5653909
0.4955654
1.2714503
0.71195788
1.3137831
2.0204139
2.0223828
1.2554055
1.3085174
0.61914565
1.1515897
1.0298346
0.54813058
0.30605468
0.34595843
0.75251883
0.32971052
0.29148149
0.24518714
0.26261447
0.27099849
0.34197943
0.57759226
1.0741235
2.1678423
3.6157059
4.7452992
5.6151025
5.7447546
5.8796836
5.7510077
5.0154215
5.1640693
4.8971582
3.6682853
4.1784316
4.0758516
2.9560437
3.016221
2.1497371
2.4495652
3.2869361
4.0908053
4.7188936
5.264057
5.670097
6.0039961
6.0637279
6.0963718
6.0367379
5.7175991
5.7916092
5.7467112
5.3341945
5.4004893
5.3306705
4.821476
4.90804
4.8079355
4.8767643
4.9442467
5.4608871
5.8559331
6.1524061
6.1823145
6.1516432
5.849895
5.8977775
5.9688936
6.2276025
6.1995236
6.146152
6.0894534
6.1655566
6.2212275
5.9672573
5.8684796
5.7942571
5.8998937
5.583523
5.4415758
5.5122344
5.6502871
5.2648908
5.0705235
4.9788279
5.1827549
5.3833936
5.7344196
6.0103422
6.2451516
6.0824632
5.9609066
5.6474969
6.1823371
6.2918092
5.8742279
5.5257826
5.3696339
5.7415178
5.1912627
4.6525579
4.3016949
3.776637
3.9355093
4.791877
5.3296957
4.6809275
4.5287397
5.1188707
5.6431172
6.0499731
6.3852199
6.6126449
6.7832245
6.8872599
6.8505923
6.8722448
6.9135654
6.9139599
6.9239663
6.8901126
6.921333
6.9058866
6.8659977
6.8694869
6.8330116
6.6389812
6.8287418
6.8353096
6.8682632
6.82691
6.6796944
6.7669721
6.7187373
6.5558035
6.6584312
6.6260915
6.4788181
6.1755652
6.3876775
6.311904
6.1859101
6.5726664
6.7840984
6.189188
5.3978727
6.0306917
6.134859
5.7804786
5.2884307
5.7810655
5.6447339
6.0526182
6.3129414
6.3882085
6.6270781
6.5572748
6.3883813
6.4810121
6.1769066
6.2493528
6.4717405
6.7292768
6.6806372
6.6364409
6.7277031
6.861084
6.8679414
6.8964395
6.8764549
6.8916333
6.8081348
6.8212911
6.7562414
6.769828
6.881784
6.8749757
6.901487
6.8755168
6.9043276
6.8368388
6.8317079
6.7724638
6.6767279
6.6225767
6.557657
6.4945233
6.4255808
6.3668687
6.3103884
6.2722826
6.2482275
6.2467495
6.2676616
6.3042908
6.314295
6.3678969
6.1613804
6.1385396
6.0630872
6.0909267
6.0386012
6.2801812
6.2600918
6.011447
5.977726
6.0067997
5.6680676
5.7521654
5.8608025
5.8962494
5.7956836
5.4159642
5.5639826
5.5126352
5.3520865
5.2208727
5.2944781
5.7179235
5.6770593
5.6239656
5.1502361
5.2286234
4.6106513
4.7253781
4.9274421
5.1530999
5.0823778
4.8389224
4.1878179
4.5620169
4.6529427
4.2999126
3.9420262
3.8218104
4.6239032
4.5313311
4.4072763
3.5126277
3.7251097
3.6490604
3.5892664
3.388685
3.3485528
4.1874468
4.2084902
4.1462653
4.2979307
4.236137
3.5100241
3.5723984
3.3432895
3.380515
3.4257682
4.2741782
4.4352833
5.0447281
5.524804
5.4659471
4.9775933
5.1392241
5.5750875
5.9241557
6.0192921
6.2700816
6.2962042
6.0599473
5.7600048
5.6303749
5.2033908
5.3893846
5.3304467
5.7096665
5.8547973
6.1246752
6.3420427
6.2959621
6.3853446
6.3361031
6.1317595
6.1899621
6.0769148
5.8005628
5.9502793
5.8904765
5.5933198
5.6656275
5.468269
5.5288698
5.5808559
5.8990135
6.1605629
6.3642088
6.4459277
6.4257584
6.2329819
6.2642926
6.3645837
6.5166814
6.5006403
6.4630098
6.4192353
6.5039784
6.5453353
6.4012783
6.299398
6.2425177
6.3529711
6.1745446
6.0358271
6.0936607
6.2248571
6.0172422
5.8499063
5.7772618
5.957138
5.7185386
5.4997759
5.266535
5.0028895
4.7344256
4.4628915
4.5352812
4.8061662
4.2842762
3.9124785
3.8257195
4.2045395
3.6605502
3.182928
2.7521378
2.7580767
2.4261632
1.5015312
1.5440785
1.9598564
1.9448426
1.9279917
2.7805935
3.6243501
4.3657537
4.6060053
4.6759703
4.9430271
4.8768606
4.3539076
3.9768081
4.0452867
3.6835378
2.8113894
2.4170625
2.3669721
2.6752162
3.1829622
3.7215557
3.1126827
3.0701402
2.421177
3.1450891
2.6677737
2.3773749
1.4085395
1.8034596
1.7594029
2.4278617
2.4411918
3.2329866
3.2999183
3.8656875
3.2283845
3.8465908
3.924753
4.4260685
4.808064
5.1270679
4.7810429
5.1062997
4.7864675
5.1167194
5.0807689
5.0411286
4.7173656
5.0774538
5.1194682
4.7652641
4.8104439
5.1579433
4.8661331
5.2413167
5.5781527
5.5437199
5.1982428
5.1521019
4.8614782
4.9198996
5.3303258
5.3763066
5.4186192
5.6084902
5.2806426
5.0322763
4.9771581
4.5277375
4.4603653
4.81481
4.761701
4.3451334
4.4033146
3.9698495
3.9010403
4.3943793
4.3306559
3.8368469
3.7761198
3.2446441
3.8329131
4.4043171
4.920976
4.9825083
4.469275
4.1182728
4.7349407
4.6701467
4.0541756
3.3605364
3.4136108
3.8957324
3.2984355
2.6765399
2.6455205
2.0470215
2.9072206
3.7359084
4.4539834
4.5185147
3.7922874
3.5732846
4.3817179
5.0185886
5.0811698
5.1658379
5.3051649
5.4716807
5.8253947
5.8616048
5.5192998
5.3608712
5.7517341
5.7094388
5.6170074
5.663927
6.0001645
6.2553156
6.2309731
6.2143321
6.2131914
6.4533484
6.7160638
6.7165561
6.7141181
6.4769177
6.2833058
6.2920985
6.0575663
6.0314176
5.9999961
6.2608296
6.2705525
6.028176
5.7046472
5.7495063
5.8261455
5.922387
5.60511
5.7503017
5.7769634
5.9128356
6.0453492
6.1715885
6.2896745
6.3974146
6.5502285
6.7530047
6.8855788
6.9262486
6.90093
6.8495442
6.8702153
6.8221055
6.8699389
6.9195498
6.8991559
6.8804033
6.9265448
6.9272892
6.8758582
6.885954
6.9050568
6.9167194
6.9096638
6.8962893
6.8946334
6.8257073
6.838854
6.7724004
6.8807873
6.8668932
6.767
6.7626133
6.8299087
6.8195656
6.8903618
6.8580117
6.8702954
6.8285265
6.865779
6.8721081
6.8900884
6.8725371
6.9165294
6.9357979
6.9442715
6.889964
6.8900227
6.8943887
6.885258
6.8153906
6.8259166
6.7523981
6.8615014
6.847502
6.7476862
6.7469863
6.8236056
6.8887578
6.9188759
6.8804221
6.8191694
6.8383148
6.8516134
6.8012911
6.871013
6.7818195
6.6579525
6.6626204
6.8005294
6.8168407
6.8149273
6.6758999
6.7565299
6.7046712
6.7133267
6.7456175
6.8755124
6.9270482
6.9090295
6.9160248
6.9039931
6.8937817
6.8656023
6.8791612
6.7702454
6.8375141
6.8246749
6.7653206
6.7613259
6.8691711
6.8955998
6.8898211
6.8571589
6.7555811
6.8189183
6.8290085
6.7215092
6.7197006
6.7292125
6.7197604
6.712571
6.6687263
6.6763926
6.5704197
6.6358094
6.627964
6.5690526
6.5687352
6.6730511
6.714635
6.7076794
6.664252
6.565626
6.6236291
6.6314099
6.523968
6.5310389
6.5491395
6.5279469
6.5237285
6.4406002
6.4399283
6.2851731
6.3947952
6.3878357
6.2875121
6.28932
6.4406048
6.4390301
6.5197305
6.3858294
6.3932329
6.2556859
6.3325327
6.5316929
6.7206505
6.7304791
6.7221121
6.7145751
6.6301151
6.6383593
6.5741512
6.6796509
6.6714411
6.5720907
6.5712537
6.6332816
6.7164129
6.7092635
6.6252523
6.5677798
6.6663039
6.675424
6.6253293
6.6882407
6.8262889
6.8771679
6.8402178
6.6924012
6.6077111
6.7924649
6.7761449
6.6057554
6.6015919
6.6829978
6.6194347
6.6696004
6.7119984
6.7222002
6.5435833
6.5239796
6.5142103
6.6211393
6.6188984
6.7032535
6.6592557
6.5608244
6.5656489
6.6289956
6.5231859
6.5211485
6.5256302
6.5257945
6.5305284
6.4440151
6.4438498
6.2909156
6.3898723
6.3947647
6.3869935
6.2905719
6.4410853
6.4431529
6.2918258
6.11795
6.2569375
6.252273
6.3396915
6.2534079
6.2505733
6.1117144
6.1067696
5.9056804
6.0788212
6.074019
5.9132909
5.9198837
6.1155494
6.1163893
6.2886932
6.2879667
6.4372418
6.5638288
6.6676601
6.7105391
6.7020639
6.6577022
6.5593505
6.6177652
6.6275787
6.5219523
6.5431239
6.5237009
6.7127914
6.703591
6.6962228
6.6507127
6.6605107
6.5568291
6.620185
6.6117246
6.5522917
6.4270457
6.508134
6.5134277
6.5148653
6.4336477
6.2847368
6.3815664
6.3924525
6.2551248
6.3365113
6.3249833
6.2490257
6.3845861
6.3754229
6.2789073
6.2823424
6.4305659
6.3440289
6.4888409
6.6099706
6.674565
6.8137297
6.8647818
6.8714163
6.8891995
6.898959
6.9354458
6.9157141
6.8937932
6.8896197
6.8847635
6.8466129
6.8606984
6.7515324
6.8254508
6.8148156
6.7465482
6.7554258
6.7164974
6.7082881
6.69282
6.6909823
6.6991936
6.6536178
6.6435747
6.5451578
6.606099
6.6156525
6.5497714
6.4242077
6.5102395
6.5370331
6.5192417
6.5027537
6.6090041
6.6011006
6.685727
6.6364329
6.6463856
6.5429124
6.5386481
6.4145624
6.4982809
6.3666253
6.3745735
6.3708436
6.5034047
6.4203783
6.272944
6.2765926
6.3814942
6.245036
6.3286358
6.537303
6.7168426
6.7089293
6.5197851
6.503208
6.6093789
6.6933181
6.6914669
6.6998897
6.6970636
6.6124317
6.5532168
6.6517214
6.6617684
6.5579004
6.4316109
6.4349601
6.5157906
6.3822928
6.393344
6.2894338
6.4389747
6.3518028
6.497833
6.5002174
6.6173131
6.5579101
6.5671076
6.5609115
6.6217856
6.6281248
6.5033283
6.5031301
6.428398
6.4266956
6.5676416
6.509442
6.5048981
6.3513383
6.3470521
6.2681473
6.4472493
6.4434102
6.2754597
6.2814847
6.3545015
6.4295314
6.5027964
6.3547983
6.354128
6.3519143
6.2530966
6.2581282
6.0541293
6.1762571
6.1789176
6.1795973
6.3538312
6.2617134
6.4279433
6.3545208
6.5038766
6.5113221
6.4531577
6.4455388
6.2835431
6.0774413
6.1682162
6.1648815
6.2609296
6.0600086
6.0633401
5.9452714
5.9380279
5.9272157
6.1588089
6.1498463
6.0462615
6.0601828
5.7990492
5.8165356
6.0705626
5.9825354
6.2145023
6.4045792
6.5353603
6.7378901
6.8391659
6.8239361
6.7426132
6.7810376
6.7637963
6.5943345
6.5264561
6.7255577
6.700204
6.7181836
6.7118995
6.7273083
6.7530761
6.5338832
6.4899416
6.494067
6.4935739
6.5330834
6.4060899
6.4522784
6.508091
6.5621773
6.5512159
6.610029
6.4935639
6.422442
6.4261787
6.2608573
6.2586525
6.3486338
6.1767975
6.2858827
6.2832002
6.3850097
6.3757952
6.508668
6.4277153
6.2794865
6.1102206
6.2417379
6.2492392
6.2476674
6.2557297
6.2515062
6.0779796
6.0863359
6.0752397
6.0804122
6.2556977
6.1114672
6.1152081
5.9164757
5.9100411
5.6880801
5.9082261
5.9111206
5.6966175
5.6848744
5.4411665
5.4580052
5.6988951
5.7074757
5.9199896
6.0855482
6.0774721
6.2506551
5.9224331
5.711304
5.9181783
5.7123299
5.923774
6.1181068
6.1179279
6.1153543
5.9239574
6.0759642
6.0872415
5.9254095
5.7156156
5.9232004
6.0869792
6.0757808
6.2472796
6.1145495
6.1166583
5.9244751
5.9233454
5.9228832
6.1129109
6.1098235
6.2415579
6.0710949
6.0826429
5.9210481
6.0827506
6.0711601
5.9204046
5.9232037
6.1133287
5.9775045
6.1741845
6.3451723
6.4901093
6.6114002
6.6018966
6.485514
6.4146656
6.5428145
6.5543325
6.419276
6.2557596
6.2523356
6.3414058
6.1710136
6.0599467
6.0622418
6.0639489
6.0644094
6.1788201
5.9796356
5.9786216
5.9757132
5.9703759
5.9624268
5.7258679
5.7378584
5.5478226
5.8168748
5.8033418
5.5284885
5.2232367
5.4637021
5.4807186
5.1999082
5.1763814
5.1485671
4.8524298
4.5174674
4.9145378
4.5947236
4.1174661
4.0424515
4.4611149
4.0386543
4.4373551
4.3854285
4.7424821
4.6956937
4.6459347
4.252753
4.1947918
3.7983243
3.8575575
4.2770595
3.8559516
3.7964101
3.7330822
3.6702291
3.230179
3.6457744
3.201006
3.2693455
3.6751954
3.1432268
2.7359991
2.6639853
2.2943638
2.7948941
2.8480857
3.3003506
2.7998732
3.2401611
3.1743271
2.72551
2.3238038
2.3805238
1.9449256
2.3512321
2.3993646
2.78548
3.1952232
3.7375335
3.796875
3.2484521
2.8370041
3.388086
3.3293045
2.9056077
3.3609254
3.4198613
2.904087
3.352471
3.2960002
2.8511366
2.4291249
2.4797019
2.9627402
2.4496835
2.0309576
1.9862835
1.4895571
1.8204418
2.1481334
2.5510313
2.5215359
1.8410274
1.4494517
2.1195444
2.0927345
1.4378454
0.87840468
0.83105407
1.1957846
0.78174771
0.45453996
0.51691256
0.35781096
0.69064315
1.1762751
1.7659189
1.788918
1.1882311
0.9561031
1.4615073
1.4315404
1.8853391
1.4534064
1.817453
2.1808752
2.630105
2.6582497
2.2118995
1.5550564
2.0050845
1.9989219
1.54013
1.2394176
1.2513749
1.8410714
1.4839459
0.99301858
0.97520866
0.59137822
0.74474719
0.9670647
1.4123397
1.3547902
2.0625749
2.883366
2.5909961
3.48697
4.2589254
4.3195547
3.5267959
2.5903878
2.596905
2.9383205
2.0375414
1.5545095
1.6050216
1.658708
1.69412
2.6071278
3.4277364
3.4190243
3.4766707
4.2517974
4.8866751
5.3911623
5.7873937
5.7145478
5.7526135
6.0624972
6.1191509
5.8232585
5.8778882
5.8432038
5.8882429
6.1746886
6.1991385
6.1715619
6.2143687
6.4701013
6.7194466
6.6879447
6.7019885
6.7514298
6.8699017
6.8723889
6.8304519
6.7137549
6.4759624
6.522469
6.7412097
6.7443214
6.5038292
6.5882778
6.7874184
6.7650428
6.5615804
6.6634443
6.8231104
6.8117364
6.8613995
6.9136834
6.8722099
6.9139534
6.8817715
6.8390828
6.8336095
6.7816592
6.600602
6.6894955
6.6825908
6.7689525
6.7553524
6.8680332
6.8959835
6.8752658
6.8912584
6.8678093
6.8274384
6.8875462
6.833515
6.6386655
6.7839904
6.6127562
6.6794693
6.7654941
6.8335419
6.8281907
6.7171243
6.5520161
6.3833719
6.1803179
6.0434645
6.169205
6.4766932
6.6226207
6.6529719
6.3033915
6.3800265
6.1197844
5.7655566
5.6274181
5.3699452
5.0845689
5.2563882
5.7507451
5.6105645
6.013511
6.2972695
6.1661552
6.5656409
6.781851
6.8648826
6.8687032
6.9053369
6.9209002
6.8897121
6.9236153
6.8746873
6.903931
6.9011047
6.8748941
6.7717181
6.8308228
6.8356199
6.8199191
6.8067256
6.7271068
6.5749647
6.5041059
6.4215176
6.3411188
6.2541766
6.1792825
6.1093203
6.1634909
5.8909897
5.8200887
5.9169332
5.9817511
6.2326663
6.2796397
6.3036635
6.2398134
5.9848924
5.921831
5.5583634
5.5082279
5.4529738
4.9513847
5.0132332
5.0908101
5.0296533
5.5045324
5.4433698
5.3771975
5.3242916
4.8012999
4.8821322
4.9648806
5.1067771
5.54125
5.4742897
5.0197271
5.2063023
5.6041179
5.6678023
5.2848945
5.3465327
5.1706722
5.6001416
5.9434993
6.0311436
6.0692549
5.7709334
5.651189
5.2294856
5.4012547
5.4521473
5.2863296
5.1514691
5.0756589
5.5599166
5.5632243
5.6126115
5.9665809
5.9647479
6.230016
6.2521294
6.2360416
5.9613923
5.929423
5.9951857
6.0269091
5.9983232
6.2598268
6.2697458
6.0266184
6.0535195
6.2895504
6.2804032
6.3159169
6.2891028
6.275123