/*--------------------------------*- C++ -*----------------------------------*\
  =========                 |
  \\      /  F ield         | OpenFOAM: The Open Source CFD Toolbox
   \\    /   O peration     | Website:  https://openfoam.org
    \\  /    A nd           | Version:  7
     \\/     M anipulation  |
\*---------------------------------------------------------------------------*/
FoamFile
{
    version     2.0;
    format      ascii;
    class       volScalarField;
    location    "180";
    object      rho;
}
// * * * * * * * * * * * * * * * * * * * * * * * * * * * * * * * * * * * * * //

dimensions      [1 -3 0 0 0 0 0];

internalField   nonuniform List<scalar> 
25278
(
1.1738952
1.1738762
1.1738936
1.173893
1.1739115
1.1738731
1.1738854
1.1738948
1.1738876
1.1738407
1.1738559
1.1738741
1.173883
1.1738965
1.1738547
1.1738941
1.1738772
1.1738573
1.1738535
1.1738806
1.1738618
1.1738681
1.173873
1.1738556
1.1738095
1.1738538
1.1738713
1.1738351
1.1739053
1.1738379
1.1737889
1.1738419
1.1737146
1.1737944
1.1737456
1.1738559
1.1738098
1.1737381
1.1737776
1.173649
1.1737093
1.1736654
1.1736853
1.1736372
1.1737266
1.1737563
1.1738396
1.1738215
1.1737528
1.1737966
1.1737857
1.1738681
1.1737259
1.1737337
1.1738344
1.1737652
1.1737321
1.1737993
1.1736435
1.1736909
1.1736732
1.1736678
1.1736716
1.1737533
1.1738385
1.1738268
1.1737439
1.1736758
1.173677
1.1736866
1.1738287
1.1737493
1.1737862
1.1737246
1.1738424
1.1737429
1.1737441
1.173836
1.1738653
1.1738946
1.1739188
1.1738505
1.1738533
1.173842
1.1738793
1.1739087
1.1738254
1.1737859
1.1738009
1.1738825
1.1738297
1.1737399
1.1738067
1.173708
1.173716
1.173733
1.173829
1.1739136
1.1738433
1.1737626
1.1738356
1.1737636
1.1737625
1.1737554
1.1737469
1.1738201
1.1737147
1.1735989
1.1736019
1.1735327
1.173753
1.1736669
1.1735456
1.1736367
1.1736443
1.1736459
1.1736771
1.1737439
1.1738136
1.1738118
1.1738388
1.1738783
1.1739109
1.1737939
1.1736962
1.1735956
1.1735325
1.1737525
1.1738228
1.1739079
1.1739167
1.1738922
1.1738475
1.1738453
1.1737941
1.1737811
1.1737059
1.1736653
1.173544
1.1735897
1.1736324
1.1736353
1.1736731
1.1737403
1.1737366
1.1738124
1.1738195
1.1737221
1.1737012
1.1737222
1.1738448
1.1738755
1.1738195
1.1739051
1.1738467
1.1738313
1.1737417
1.1737425
1.1736318
1.1732994
1.1730311
1.1730366
1.1733219
1.1736677
1.1737634
1.1738344
1.1738402
1.1737757
1.1737183
1.1736786
1.1736649
1.1733947
1.1731814
1.1731141
1.1722774
1.1727819
1.1731186
1.1731233
1.1728378
1.1723766
1.1730947
1.1731614
1.1733738
1.173634
1.1737473
1.1738199
1.1737427
1.173737
1.1736298
1.1736918
1.1736478
1.1738165
1.1738383
1.1738135
1.1737468
1.17376
1.173619
1.1728601
1.1712543
1.1710554
1.1728808
1.1736534
1.1737855
1.1737515
1.1737827
1.1738421
1.1737935
1.1739044
1.1738346
1.1737804
1.173854
1.173707
1.1737066
1.1736606
1.1738075
1.1737283
1.1737676
1.1736391
1.1736776
1.1736286
1.1736347
1.1737158
1.1738065
1.1738363
1.1738093
1.1737295
1.1737266
1.1737515
1.1737476
1.1737824
1.1737752
1.173621
1.1736062
1.1737058
1.1737173
1.1737448
1.1737449
1.1738134
1.1738558
1.1738751
1.1737887
1.1738284
1.1737216
1.1736806
1.1736623
1.1737575
1.1737154
1.1737839
1.1736232
1.1736524
1.1736502
1.1737389
1.1737717
1.1738551
1.1737014
1.1738274
1.1736651
1.1736457
1.1738083
1.1737218
1.1736498
1.1735806
1.1735866
1.1735929
1.1736124
1.1735759
1.1737223
1.1736812
1.1737052
1.173728
1.1737228
1.1737138
1.1737374
1.173682
1.1736749
1.1737081
1.1737587
1.1736643
1.1736032
1.1735951
1.1736142
1.1735788
1.1737079
1.1736805
1.1736425
1.1735303
1.1735599
1.1735773
1.1735127
1.1736432
1.1736135
1.1736662
1.1737313
1.1738117
1.1738084
1.1737174
1.1737837
1.1737776
1.1737166
1.1736151
1.1736265
1.1736384
1.1736907
1.1736924
1.1736544
1.1737152
1.1737515
1.1737876
1.1736456
1.1737262
1.1735761
1.1736525
1.1735178
1.1735879
1.1735219
1.1736152
1.1735749
1.1737231
1.1738401
1.1737779
1.1736535
1.1735102
1.1737155
1.1736388
1.1735827
1.1735184
1.1736248
1.1737794
1.1737153
1.1736314
1.1733319
1.1734343
1.1734275
1.1733276
1.1736168
1.1734116
1.1736656
1.1735275
1.1735118
1.1735548
1.1735858
1.1736117
1.1734664
1.1735185
1.1735084
1.1736246
1.1735357
1.1734964
1.1736142
1.173502
1.1734966
1.1737224
1.1735659
1.173567
1.173512
1.1735143
1.1734769
1.1736005
1.173376
1.1733815
1.1733931
1.1734556
1.1733272
1.1734172
1.1733908
1.1735321
1.1735591
1.1735358
1.1736898
1.1736519
1.1734962
1.1736165
1.1735005
1.1737158
1.1737503
1.1737867
1.173526
1.1735077
1.1735484
1.173575
1.1735999
1.1734579
1.1735106
1.1736646
1.1736233
1.1733913
1.173412
1.1733216
1.1734522
1.1735032
1.1734796
1.1735055
1.1735569
1.1735538
1.1737213
1.1734921
1.1735074
1.1734719
1.1735996
1.1733742
1.1733826
1.1733925
1.1733967
1.1733873
1.173341
1.1734607
1.1735664
1.1736549
1.1736029
1.1736952
1.1735142
1.1734704
1.1734955
1.1735091
1.1735614
1.1735081
1.1736022
1.1736879
1.1735722
1.1734833
1.1735204
1.1735516
1.1735227
1.1736073
1.1735493
1.1735896
1.1735587
1.1734602
1.1734734
1.1734072
1.1734192
1.1733726
1.1735163
1.1734792
1.1734299
1.1734865
1.1734586
1.1734975
1.1735464
1.1736176
1.1734886
1.1734768
1.1734893
1.1736309
1.1736402
1.1736598
1.1737173
1.1736237
1.1737746
1.1737365
1.1736002
1.173552
1.173529
1.1736031
1.1737287
1.1734709
1.1736404
1.1737565
1.1735784
1.173505
1.1733406
1.1734691
1.1734266
1.1732382
1.1731237
1.1734589
1.1738843
1.1735891
1.1738046
1.1737598
1.173795
1.1736168
1.1736123
1.173548
1.173563
1.1735527
1.1738562
1.1736144
1.1732812
1.1732731
1.1732768
1.1734675
1.1734934
1.1735009
1.1734247
1.1734625
1.1733539
1.1734073
1.1733751
1.1734497
1.1734113
1.1736157
1.1735312
1.1732794
1.1733301
1.1731725
1.1733271
1.1733887
1.1733528
1.1735332
1.1734863
1.1735305
1.1735082
1.1733415
1.1733999
1.173396
1.1734847
1.1734724
1.1735021
1.1736443
1.1735873
1.1737302
1.1737511
1.1737201
1.1736994
1.1735676
1.1736086
1.1736232
1.1737223
1.1736346
1.1736197
1.1735461
1.1735626
1.1736105
1.1734954
1.1736209
1.1735765
1.1736366
1.1736476
1.173827
1.1736024
1.1735999
1.1735326
1.1734988
1.1734424
1.1734785
1.1737701
1.1735979
1.1736654
1.1731427
1.1735117
1.1733451
1.1732469
1.1733058
1.1735071
1.1739281
1.1739105
1.1733574
1.1733111
1.173442
1.1731674
1.1735432
1.1733383
1.1735798
1.1734756
1.1737049
1.1736062
1.1737306
1.1737374
1.1737327
1.1737482
1.1737615
1.1737286
1.173762
1.1737207
1.1736857
1.1736055
1.1736083
1.1736712
1.1736263
1.1735957
1.1737189
1.1736901
1.1736605
1.1737026
1.1735714
1.1735493
1.1735735
1.1735815
1.1735242
1.1736424
1.173615
1.1736582
1.1736033
1.1736966
1.1735761
1.1735179
1.1735202
1.1734727
1.173503
1.1734659
1.1735562
1.1734604
1.1735668
1.1735479
1.1734877
1.1735805
1.1736907
1.1736201
1.1735226
1.1735308
1.1735639
1.173534
1.1736101
1.1735212
1.1733732
1.1734219
1.1735909
1.1734804
1.173412
1.173391
1.17334
1.1734663
1.1734558
1.1734983
1.1734529
1.1735164
1.1733532
1.1733334
1.1732259
1.1731982
1.1732409
1.1732541
1.1732786
1.1733276
1.1731746
1.1732518
1.1732151
1.1733329
1.1732158
1.1732498
1.1729593
1.1731537
1.1730351
1.1731592
1.1732397
1.1733546
1.1733177
1.1733701
1.1734099
1.1734827
1.1735335
1.1736651
1.1735587
1.1736144
1.1734409
1.1735239
1.1735487
1.1735033
1.1734559
1.1735256
1.1734734
1.1735405
1.1735327
1.1736356
1.1734968
1.1734732
1.1734575
1.1735964
1.1736117
1.17363
1.1737008
1.1736263
1.1735522
1.1735072
1.1735099
1.1734868
1.1734258
1.1734995
1.1735241
1.1734365
1.173425
1.1733633
1.1733654
1.1734013
1.1732788
1.1734034
1.1734577
1.173332
1.1732966
1.1733856
1.1730773
1.1732832
1.1732436
1.1732159
1.1731063
1.1732522
1.1733269
1.1734291
1.1734133
1.1734529
1.1733604
1.1733227
1.1732844
1.173389
1.1734181
1.1734665
1.1734465
1.1735344
1.1735168
1.1734397
1.1733627
1.173392
1.1732743
1.1733057
1.1732146
1.1732476
1.1734235
1.173346
1.1732445
1.173338
1.173556
1.1734805
1.1737074
1.1736069
1.1737396
1.1737115
1.173703
1.1735508
1.1735543
1.1735307
1.1736649
1.1737005
1.1736984
1.1736572
1.173524
1.1735459
1.1735526
1.1734723
1.1734506
1.1735105
1.1734812
1.1735533
1.1736241
1.1735469
1.1734881
1.1734609
1.1734848
1.1734986
1.1734749
1.1734898
1.1735098
1.1735464
1.173639
1.1736018
1.1735294
1.1735102
1.1736163
1.1735865
1.1734923
1.1734481
1.1734692
1.1734539
1.1735893
1.1735416
1.1734666
1.1735273
1.1734325
1.1734219
1.1734427
1.1733763
1.1734033
1.1734422
1.1734565
1.1734174
1.1733283
1.1733722
1.1733529
1.173312
1.1732696
1.1732804
1.1733865
1.1733531
1.1733457
1.173231
1.1732533
1.1732218
1.1733463
1.1734301
1.1735677
1.1735922
1.1736099
1.1735691
1.1736681
1.1734467
1.1735086
1.173504
1.1734473
1.173441
1.1735514
1.1735234
1.1734245
1.1734225
1.1735491
1.173581
1.1735982
1.1735882
1.1736973
1.1734727
1.1735156
1.1735119
1.1734452
1.1734465
1.1735708
1.1735382
1.1734237
1.1733339
1.1733315
1.1733372
1.1733849
1.1733925
1.1734227
1.1734248
1.1735466
1.1732801
1.1733597
1.1733495
1.173266
1.1732576
1.1732126
1.1731991
1.1732611
1.1733902
1.173431
1.1734363
1.1735842
1.1733342
1.173373
1.1733634
1.1732242
1.1732186
1.1732123
1.1732311
1.1733728
1.1729927
1.1731874
1.1731409
1.1731213
1.172982
1.1731697
1.1731077
1.1731565
1.17322
1.1732834
1.1731587
1.1732401
1.1731354
1.1732888
1.1732431
1.1735079
1.1733402
1.1732409
1.1732396
1.1732573
1.1733217
1.1731599
1.173137
1.1730189
1.1730006
1.1731253
1.1732697
1.1732026
1.1734698
1.1735157
1.1733028
1.1732559
1.1733505
1.1733317
1.1732265
1.1731267
1.1731514
1.1733051
1.1732996
1.1732557
1.1732889
1.1733829
1.173437
1.1734954
1.1734688
1.1735152
1.1734879
1.1734368
1.1733607
1.1733989
1.1734583
1.1734885
1.1734433
1.1735646
1.1734408
1.1732308
1.173307
1.1732355
1.1734553
1.1735626
1.173444
1.1733685
1.1734353
1.1733774
1.1732865
1.173198
1.1732921
1.1734117
1.1732959
1.1733727
1.1733079
1.1734014
1.1733284
1.1732947
1.1732765
1.1732089
1.1732236
1.1730788
1.1731701
1.1731474
1.1730627
1.1730827
1.1729916
1.1730489
1.1728884
1.1729775
1.1730909
1.1731852
1.1731219
1.1733113
1.1731832
1.1730575
1.1729373
1.1730181
1.1731019
1.1727636
1.172913
1.1732508
1.172958
1.1729074
1.1731184
1.172538
1.1727067
1.1727888
1.1726408
1.1727756
1.1729294
1.1728705
1.1730307
1.1729144
1.1727134
1.1725154
1.1727752
1.1726633
1.1729214
1.1728746
1.1730775
1.173138
1.1731449
1.1730736
1.1732358
1.1732676
1.1733737
1.1734067
1.1734614
1.1734322
1.1733373
1.1733822
1.1734232
1.1733456
1.1732657
1.1731296
1.1732149
1.1730942
1.1731995
1.1731504
1.1730244
1.1730802
1.1731911
1.1730605
1.1732084
1.1730905
1.1732289
1.173131
1.1732811
1.1731906
1.1733146
1.1731135
1.1732064
1.1730153
1.1729079
1.1730184
1.1729638
1.1729593
1.1727249
1.172887
1.1730173
1.1730362
1.1728983
1.1726746
1.1728612
1.1728444
1.1726678
1.1724353
1.172417
1.1727177
1.1725603
1.1728648
1.1726886
1.1729675
1.1731806
1.173322
1.1734138
1.1735599
1.1735087
1.1734667
1.1735237
1.1734032
1.1733988
1.1734075
1.173322
1.1733085
1.1733034
1.1731591
1.1731735
1.173188
1.1729962
1.1730492
1.1731498
1.1731351
1.1730308
1.1727953
1.1728246
1.1729392
1.1730806
1.1731694
1.1734901
1.1734619
1.1730356
1.1730857
1.1729107
1.1728987
1.1731336
1.1729973
1.1730007
1.1732047
1.1732665
1.1733932
1.1734016
1.1734522
1.1735676
1.173555
1.1737029
1.1737387
1.1738227
1.1738629
1.1738608
1.173858
1.1738302
1.173914
1.1738422
1.1738316
1.1738488
1.1737903
1.1737629
1.173661
1.1737514
1.1736956
1.173658
1.173775
1.1737771
1.1737735
1.1738473
1.1738577
1.1737606
1.1737519
1.1736682
1.1733112
1.1731585
1.1732019
1.1733848
1.173104
1.1728081
1.1723458
1.1730134
1.173704
1.1736553
1.1736614
1.1738209
1.1738476
1.1738115
1.1738131
1.1736293
1.1733715
1.173093
1.1728
1.1723572
1.1729886
1.1733028
1.173073
1.173155
1.1736502
1.173689
1.1736246
1.1737365
1.1738364
1.1738169
1.1737453
1.1737513
1.1735942
1.172821
1.1713331
1.1712371
1.1729733
1.1737074
1.1738084
1.1737346
1.1738696
1.1737869
1.1737999
1.1738833
1.1737395
1.1738
1.1738428
1.1738266
1.1737444
1.1737582
1.1736788
1.1736811
1.1736794
1.1736946
1.1736513
1.1736777
1.1737363
1.1737711
1.1738379
1.1737013
1.1736841
1.1736346
1.1737563
1.1737571
1.1737527
1.1737342
1.1736575
1.1736988
1.1737061
1.1736708
1.173717
1.1737438
1.1737302
1.1736095
1.1736143
1.1735638
1.173542
1.1735291
1.1735509
1.173564
1.1735857
1.173708
1.1736662
1.1737044
1.1737236
1.1736186
1.1735801
1.1736008
1.1737367
1.1736972
1.1737254
1.1736102
1.1735885
1.1735638
1.1734825
1.173525
1.1734753
1.1735001
1.1734762
1.1734781
1.1734885
1.1735392
1.173531
1.1733915
1.173392
1.1733924
1.1733927
1.173295
1.1732945
1.1732784
1.173276
1.1731077
1.173109
1.173146
1.1731495
1.1728997
1.1729038
1.172969
1.1729275
1.1726554
1.1727079
1.17274
1.1723456
1.1725904
1.1722464
1.1723505
1.1724856
1.1727872
1.1727077
1.1728465
1.1733434
1.173234
1.1728336
1.1725441
1.1725928
1.1728237
1.1724957
1.1727895
1.1725205
1.17283
1.1730853
1.1730985
1.1732357
1.1735477
1.1731443
1.1734079
1.1728358
1.1725069
1.1726793
1.1731689
1.1733709
1.1728084
1.1731887
1.1727645
1.173084
1.1729597
1.173209
1.1731002
1.173307
1.1732806
1.1732424
1.1733288
1.1734046
1.173476
1.1735255
1.1735173
1.1734271
1.1735984
1.1735431
1.1735151
1.1734628
1.1734952
1.1734673
1.1734476
1.1733571
1.1733666
1.1733213
1.1734207
1.1734466
1.1734897
1.1735402
1.1733987
1.1732686
1.1733948
1.1733568
1.1734253
1.173497
1.1736203
1.1736913
1.1734742
1.1734042
1.1736045
1.1735301
1.1734912
1.1734303
1.1734549
1.1736045
1.1735268
1.1735154
1.1734624
1.1734053
1.1733181
1.1732805
1.1733813
1.1734457
1.1735876
1.1735517
1.1735332
1.1736969
1.1736789
1.1737116
1.1737124
1.173722
1.1738116
1.1738719
1.1738915
1.1738942
1.1738849
1.1738943
1.1738686
1.1738629
1.1738551
1.1738553
1.1737712
1.1738101
1.1736984
1.1736461
1.1736472
1.173722
1.1737339
1.1738246
1.1736577
1.1736435
1.1736431
1.1737108
1.1737849
1.1738719
1.1737136
1.1737835
1.1736162
1.1736702
1.173825
1.1737501
1.1736508
1.1736009
1.173584
1.1735804
1.1735786
1.1735206
1.1735238
1.1734911
1.1735052
1.1736503
1.1736807
1.17352
1.1735477
1.1734988
1.1734605
1.1735257
1.1734726
1.1734493
1.1734609
1.1734727
1.1735086
1.1735312
1.1736291
1.1735752
1.1735991
1.1734849
1.1734489
1.1734382
1.1735779
1.1735344
1.17343
1.1734047
1.1734458
1.1734929
1.1735156
1.1735827
1.1735961
1.1736951
1.1734611
1.1734846
1.1734845
1.1735404
1.1736414
1.1734143
1.1735132
1.1735316
1.1734777
1.173508
1.1733354
1.1732261
1.1733522
1.1734102
1.1733794
1.1734097
1.1733002
1.1732651
1.1732464
1.1733514
1.1734236
1.1734125
1.1735551
1.1734924
1.1735279
1.1734167
1.1734297
1.1733799
1.1734052
1.1733346
1.1733194
1.1732449
1.1733383
1.1734014
1.173365
1.1733194
1.1733359
1.1732165
1.1732567
1.173239
1.1731966
1.173179
1.1733111
1.1733933
1.1734
1.1733727
1.1733888
1.1734992
1.1735439
1.1734982
1.1734122
1.1734221
1.1734222
1.1735492
1.1734603
1.1734018
1.1734375
1.1734681
1.1735013
1.1734454
1.17339
1.1733666
1.1734489
1.1734367
1.1733493
1.173307
1.1733949
1.1734064
1.1733211
1.1733483
1.1734219
1.1733899
1.1733757
1.1733686
1.1732659
1.1732739
1.1732269
1.1733391
1.1733345
1.1732244
1.1730884
1.1731468
1.173211
1.1732769
1.1732835
1.1733168
1.1731867
1.1731614
1.1730879
1.1732215
1.1732512
1.1732933
1.173216
1.1730733
1.1731806
1.1730623
1.1731234
1.1730191
1.1729433
1.1727658
1.1729107
1.1732399
1.1731811
1.1731417
1.1732438
1.1732259
1.1731216
1.1729842
1.1731128
1.1729193
1.1729672
1.1728009
1.1727242
1.1725442
1.172818
1.1733198
1.1731563
1.17308
1.1732056
1.1732055
1.1730771
1.1730057
1.1732065
1.1728441
1.1728625
1.1726157
1.1725629
1.1724822
1.1727483
1.1733932
1.1731329
1.1730631
1.1732018
1.1733328
1.1734015
1.1734822
1.1735772
1.1736887
1.1734458
1.1734283
1.1736674
1.1735521
1.173481
1.1734105
1.1734169
1.1735667
1.1735286
1.1734982
1.1735421
1.1735455
1.1735548
1.1736731
1.1736126
1.1737965
1.1737505
1.1735531
1.1735542
1.1735307
1.1736025
1.1737986
1.1735702
1.1738676
1.1738593
1.1735907
1.1732743
1.1732305
1.1734743
1.1734368
1.1732221
1.1734074
1.1730831
1.1736269
1.1734535
1.1737243
1.1737259
1.173768
1.1736095
1.1735909
1.1735093
1.1735303
1.1735799
1.1737443
1.1735624
1.1734707
1.1732988
1.1731938
1.1733966
1.1734391
1.1733439
1.1733818
1.1733292
1.1734365
1.173411
1.173483
1.1734949
1.1734924
1.1732775
1.1733041
1.1735457
1.1735406
1.1734005
1.1733357
1.1732311
1.1732371
1.1733672
1.1733612
1.1733035
1.1733863
1.1733526
1.1733616
1.173473
1.1734404
1.1734864
1.1733732
1.1733915
1.1733978
1.1734556
1.1735703
1.1734351
1.173413
1.1735292
1.1733996
1.1733763
1.1732875
1.1733184
1.1733521
1.1732486
1.1732998
1.1733586
1.1734051
1.1733314
1.1733908
1.1733227
1.1732932
1.173172
1.1731506
1.1730692
1.1730842
1.173224
1.1732592
1.1731273
1.1732124
1.1733009
1.1732189
1.1730852
1.1732033
1.1730949
1.1730422
1.1730242
1.1730365
1.1730947
1.1729321
1.1728743
1.172726
1.1729277
1.1729866
1.173109
1.173056
1.1732162
1.1731625
1.1730039
1.1729329
1.1731144
1.1731706
1.1729884
1.1728116
1.1729072
1.1728038
1.1725449
1.1726615
1.1727851
1.1726075
1.1727973
1.1728619
1.1727332
1.1725734
1.1727408
1.1729663
1.1732083
1.1738066
1.1731258
1.1733631
1.1729825
1.17243
1.1729819
1.1733582
1.1721318
1.1726313
1.1741939
1.1730578
1.1732096
1.1739643
1.1719643
1.1722373
1.172134
1.1710091
1.1721498
1.1730285
1.1741218
1.172798
1.1725713
1.1718718
1.1738766
1.1731622
1.1721916
1.1697316
1.1710089
1.1737102
1.1710911
1.1698068
1.1680166
1.1671546
1.1673599
1.1711607
1.1720774
1.1740646
1.1734143
1.1739331
1.1736134
1.1738318
1.1736571
1.1736476
1.1738357
1.1736337
1.1735925
1.1736196
1.173576
1.1735222
1.1739354
1.173514
1.1733328
1.1734022
1.1734362
1.1731582
1.1735548
1.1733366
1.173586
1.1734726
1.1736921
1.1735855
1.1736086
1.1737127
1.1734888
1.1735205
1.1735217
1.1734452
1.1734435
1.1735899
1.1733606
1.1733796
1.1733877
1.1732817
1.1732247
1.1733452
1.173431
1.1735356
1.1735616
1.1735902
1.1734563
1.1734348
1.1734454
1.1735319
1.1735557
1.173575
1.1736661
1.1737155
1.1736243
1.1735219
1.173524
1.1734576
1.1735014
1.1735719
1.1735535
1.1734464
1.1734476
1.1733816
1.1733894
1.1733011
1.173372
1.1732814
1.173516
1.1734464
1.1736304
1.1736336
1.173754
1.1737556
1.1737932
1.1736489
1.1735824
1.1735669
1.1735129
1.1736272
1.1737808
1.1736791
1.1735979
1.17318
1.1732897
1.1734729
1.1735052
1.173378
1.1735305
1.1733644
1.1736522
1.1735401
1.1737355
1.1736612
1.1737827
1.173793
1.1738697
1.1738414
1.173761
1.1737662
1.1738146
1.1738126
1.1738117
1.173841
1.1738385
1.1739066
1.1738453
1.1737241
1.1738584
1.1737536
1.1738141
1.1737449
1.1736964
1.1736783
1.1737196
1.1738473
1.1737511
1.1737368
1.1736601
1.1736073
1.1735956
1.1736667
1.1737932
1.1738466
1.1738002
1.1737852
1.1737311
1.1737902
1.1736337
1.1735475
1.1734654
1.1735422
1.1736405
1.1735289
1.173669
1.1735944
1.1737331
1.1738457
1.1737241
1.1736519
1.1736007
1.1734401
1.1735557
1.1737018
1.1737008
1.1737902
1.1736488
1.1737325
1.1737236
1.1737823
1.1737256
1.1737875
1.1736512
1.1736413
1.173628
1.1736193
1.1736931
1.1737275
1.1737665
1.1737388
1.1737339
1.1736228
1.1736841
1.1736396
1.1735415
1.1735694
1.173502
1.1735295
1.1734697
1.1734912
1.1734486
1.17346
1.1734397
1.1734396
1.173447
1.1734362
1.1735779
1.1735959
1.1734741
1.1734283
1.1734157
1.1734617
1.173452
1.1735818
1.17358
1.1734535
1.1734036
1.173403
1.1732893
1.1733188
1.1733408
1.1734035
1.1733802
1.1732546
1.1732891
1.1732109
1.173183
1.1731221
1.1732169
1.1733593
1.1733643
1.1732901
1.1731331
1.1732466
1.1729806
1.1729162
1.1730417
1.1731162
1.1730023
1.1729467
1.1726916
1.1727255
1.1728755
1.1728034
1.17261
1.1723512
1.1727726
1.1728027
1.1727774
1.1723819
1.1724252
1.1725937
1.1727328
1.1727378
1.1728997
1.173138
1.1731641
1.1732598
1.1732471
1.1735608
1.1732033
1.1731161
1.173138
1.1729453
1.1727976
1.1730354
1.1730347
1.1732252
1.1733492
1.1734049
1.1732825
1.1732933
1.1734085
1.1734588
1.1734688
1.1736042
1.173585
1.173454
1.1733786
1.1733665
1.1732568
1.1732677
1.1733051
1.1734199
1.1734225
1.1734704
1.1735453
1.1735651
1.1736445
1.1737077
1.1735092
1.1735315
1.1735279
1.173453
1.1734652
1.1735426
1.1733811
1.1734014
1.1733995
1.1733174
1.173303
1.1733983
1.1734664
1.1735332
1.1736133
1.1736236
1.1734911
1.1734843
1.1734995
1.173552
1.1735549
1.1735751
1.1736233
1.1737283
1.1736776
1.1735545
1.1735471
1.1734652
1.1735443
1.1735662
1.1735236
1.1734838
1.1735089
1.1734426
1.1734358
1.1733182
1.1734338
1.1734834
1.1734184
1.1734522
1.1734029
1.1735152
1.1734762
1.17326
1.1732555
1.1731354
1.1731419
1.1730765
1.17322
1.1733827
1.1732699
1.1734738
1.1728747
1.1729053
1.1726205
1.1727381
1.1728452
1.1725801
1.1722143
1.1726731
1.1729412
1.1731626
1.1731837
1.1730925
1.1731103
1.1731998
1.1730085
1.1729818
1.1728865
1.1727908
1.1723833
1.1723785
1.1722635
1.1722937
1.1724256
1.1724945
1.1720803
1.1723398
1.1722173
1.1726474
1.1726114
1.1725868
1.1720483
1.1721283
1.1716938
1.171946
1.1717187
1.1722686
1.1721569
1.1722232
1.1716505
1.1722064
1.1722448
1.1725983
1.1727832
1.1729604
1.17274
1.1729265
1.1727181
1.1729286
1.1728661
1.1728491
1.1726835
1.1729033
1.1729152
1.1726927
1.1727495
1.1729673
1.1728037
1.173018
1.1731864
1.1731521
1.1729789
1.1729751
1.1728896
1.1728822
1.1730862
1.1731131
1.1731885
1.1732631
1.1731145
1.1729944
1.1729068
1.1726414
1.1726216
1.1727593
1.1727626
1.1724747
1.1724632
1.1722633
1.1722873
1.1726382
1.1726991
1.1723841
1.1725129
1.1723882
1.1727498
1.1729526
1.1731553
1.1730665
1.172851
1.1728026
1.17304
1.1731333
1.1729123
1.1726844
1.1724876
1.1725666
1.1721565
1.1719972
1.1722593
1.1721769
1.1726527
1.1728974
1.1731307
1.1730134
1.1727479
1.1727305
1.1730069
1.1731705
1.1731145
1.1731294
1.1731575
1.1731853
1.1733132
1.1733105
1.1731769
1.1731413
1.1732845
1.1732918
1.1732776
1.1732625
1.1733573
1.1735142
1.1734838
1.1734448
1.1734482
1.1734863
1.173633
1.1736332
1.1736678
1.1735035
1.1734211
1.1735427
1.1733911
1.1733562
1.1733438
1.1733926
1.1735173
1.1733778
1.173283
1.1733011
1.1733332
1.1733667
1.1732473
1.173307
1.1733912
1.1734356
1.1734727
1.1734987
1.1735223
1.1734451
1.1735521
1.173706
1.1737403
1.1737857
1.1738293
1.1738544
1.1738756
1.1738872
1.1738763
1.1738602
1.1738666
1.1738371
1.1737824
1.1738358
1.1738202
1.1737376
1.1736955
1.1737502
1.1738187
1.1737346
1.1737677
1.1737546
1.173648
1.1736448
1.1736741
1.1737503
1.1737007
1.1737558
1.1737549
1.1738431
1.1738046
1.1738133
1.1737382
1.1737261
1.1738098
1.1738217
1.1738634
1.173828
1.1738344
1.1738325
1.1738626
1.1738756
1.1738449
1.1737922
1.1738336
1.1738881
1.1738488
1.1738482
1.1738141
1.1738555
1.1738776
1.1738958
1.1738972
1.1738419
1.1738699
1.1738556
1.1739008
1.1738769
1.1738655
1.1738596
1.1738673
1.1738696
1.1739089
1.1738909
1.1738467
1.1738049
1.1738031
1.1738153
1.1738103
1.1737064
1.1738159
1.1737898
1.1738223
1.1738377
1.1738265
1.1737609
1.1737002
1.1737719
1.1737635
1.1736878
1.1736589
1.1736561
1.1737619
1.1737151
1.1737695
1.1737519
1.173741
1.1738085
1.1738234
1.1738219
1.1738486
1.1737635
1.173735
1.1737318
1.1736353
1.17357
1.1736986
1.1736828
1.1735462
1.1735858
1.1735321
1.1736651
1.1736403
1.1736778
1.1736207
1.1736035
1.1737246
1.1737552
1.1737342
1.1737546
1.1736243
1.173623
1.1737397
1.1735535
1.1735493
1.1736569
1.1736267
1.173563
1.1735344
1.1734498
1.1736554
1.173614
1.1736751
1.1736722
1.1737382
1.1737238
1.1737875
1.1735942
1.173598
1.1736832
1.1737381
1.1737277
1.1736307
1.1735664
1.1736945
1.1736553
1.1735237
1.1735716
1.1735278
1.173663
1.1736246
1.1736611
1.1736133
1.1735971
1.1737191
1.1737443
1.173717
1.1737356
1.1736
1.173589
1.1736844
1.1737409
1.1737317
1.1736662
1.1736183
1.1735945
1.1736416
1.1737385
1.1736685
1.1737495
1.1737516
1.1736541
1.1736788
1.1736324
1.1737286
1.1737489
1.1738844
1.1737787
1.1738023
1.1738238
1.1737509
1.1738018
1.1738043
1.1737488
1.1737052
1.1736849
1.1737184
1.1736167
1.1736527
1.1735467
1.1735493
1.1736111
1.1735997
1.1736488
1.1735863
1.17378
1.1737394
1.1737208
1.1736554
1.1736593
1.1736611
1.1735931
1.1736516
1.1735542
1.173493
1.1736546
1.1735988
1.1735069
1.1734509
1.1733583
1.1736358
1.1735745
1.1736677
1.1736765
1.1737688
1.1737563
1.1738092
1.173778
1.1737659
1.1736998
1.173642
1.1737568
1.1738189
1.1738201
1.1738327
1.1737182
1.1736943
1.1737521
1.1738863
1.1738191
1.1737163
1.1737926
1.1738694
1.1737887
1.1738505
1.1738143
1.1738903
1.1738894
1.173918
1.1738507
1.1737888
1.1737904
1.1738396
1.1738803
1.1738945
1.1737365
1.1737208
1.1737685
1.1738716
1.1738416
1.1738686
1.1739659
1.1739703
1.1739225
1.1738749
1.1738969
1.1738658
1.1737573
1.1738325
1.1738147
1.1738203
1.1738306
1.1738672
1.1738683
1.1738353
1.1738409
1.1737985
1.1738472
1.1738366
1.1738614
1.1738242
1.1738576
1.1738556
1.1738911
1.173884
1.1738449
1.1738335
1.17387
1.1738289
1.1738215
1.1737734
1.1738534
1.1738992
1.1739314
1.1739235
1.1738819
1.173907
1.1739385
1.1738563
1.1739043
1.1739434
1.1739069
1.1739281
1.1739379
1.1738441
1.1739142
1.1739011
1.1739423
1.1739517
1.1739823
1.1739149
1.1740068
1.1740064
1.1739995
1.1738911
1.1739638
1.1740178
1.1739932
1.1739577
1.1739313
1.1739212
1.1739013
1.173828
1.1738685
1.1739423
1.1738997
1.1739208
1.1738213
1.1738165
1.1737635
1.1737869
1.1738834
1.1738768
1.1738563
1.1737707
1.1738357
1.17386
1.1738237
1.1737854
1.1738884
1.173726
1.1737925
1.1737606
1.1737677
1.1737522
1.1737137
1.1737145
1.1737417
1.1735732
1.1736528
1.1736635
1.1735406
1.1735558
1.1736127
1.1736012
1.1735409
1.1734882
1.1734998
1.1736491
1.1735847
1.1735213
1.1735
1.1734486
1.1736373
1.1735692
1.1736303
1.1736396
1.1736491
1.173652
1.1736469
1.173602
1.173531
1.1735108
1.1735871
1.1735643
1.1735855
1.1736543
1.1737443
1.173723
1.173728
1.1737151
1.1737098
1.1737169
1.1735613
1.1735439
1.1737405
1.1737069
1.1737211
1.1737243
1.1736355
1.1736461
1.1736505
1.1737454
1.1737405
1.1736369
1.173536
1.1735677
1.1734855
1.1734555
1.1735461
1.1735018
1.1736176
1.1736241
1.1736054
1.1736162
1.1735317
1.1736551
1.1737284
1.1737139
1.1738091
1.1737137
1.1737248
1.1738198
1.1738212
1.1738298
1.1738095
1.1738198
1.1737139
1.1737272
1.1736219
1.1736343
1.1735723
1.1735566
1.1736445
1.1737467
1.1737493
1.1736371
1.1736629
1.1736476
1.1736738
1.1738225
1.1737699
1.1738119
1.1738261
1.1737628
1.1737864
1.1738621
1.1738387
1.1738888
1.1738649
1.1739083
1.1738585
1.1739614
1.1738464
1.1739056
1.1739586
1.1740051
1.1739248
1.1738332
1.1738497
1.173713
1.1737549
1.1738232
1.173565
1.1736381
1.1733617
1.1734919
1.1734956
1.1735848
1.1735647
1.1734438
1.1734061
1.1734429
1.1735971
1.1735559
1.1734127
1.1733412
1.1735096
1.1735466
1.1736738
1.1736435
1.1735641
1.1738227
1.1737586
1.1737875
1.1738158
1.1737923
1.1738051
1.1737742
1.1737521
1.1738205
1.1738998
1.1739531
1.1739645
1.1737657
1.1738548
1.1739107
1.1738332
1.1737676
1.1739649
1.1738524
1.1739145
1.1738366
1.1738673
1.1739651
1.1740226
1.173965
1.1740157
1.1739266
1.1740542
1.1739409
1.173988
1.1739376
1.1740533
1.1740731
1.174012
1.1739516
1.1739934
1.1739382
1.1738767
1.1738464
1.1737398
1.1738213
1.1738905
1.1739126
1.1738846
1.1737833
1.1738663
1.1739085
1.1739613
1.1739273
1.1739923
1.1740291
1.1739732
1.1739125
1.1738273
1.1738088
1.1738447
1.173764
1.1736585
1.1735694
1.1734639
1.1734042
1.1735388
1.1734953
1.1735419
1.1734261
1.173348
1.1732745
1.1733527
1.173522
1.1734753
1.1732653
1.1730609
1.1728923
1.1726633
1.1729307
1.1727457
1.1723881
1.1722767
1.1725077
1.1721159
1.1724696
1.1724132
1.1726479
1.1726405
1.1726813
1.1724663
1.1725957
1.1723456
1.1722055
1.1724815
1.1722309
1.1724381
1.1725633
1.1730813
1.1726479
1.172448
1.1726575
1.1723262
1.1725469
1.17241
1.1721256
1.1720199
1.1722297
1.1728108
1.1720409
1.1723312
1.172143
1.1724381
1.1727812
1.1720313
1.1722597
1.1717988
1.1714603
1.1717764
1.171457
1.1718063
1.1721914
1.1724105
1.1721917
1.1719531
1.1715504
1.1718566
1.172101
1.171812
1.1721081
1.1718675
1.171559
1.172007
1.1722353
1.1718238
1.1714829
1.1710927
1.1714406
1.1710711
1.17067
1.1710707
1.1706232
1.1710835
1.1714897
1.1719704
1.1722515
1.1721421
1.1716857
1.1718871
1.1724773
1.1717345
1.1724295
1.1717298
1.1721325
1.1721138
1.1719338
1.1723287
1.1730039
1.17304
1.171908
1.1727968
1.1714863
1.1711653
1.1706108
1.1710973
1.1718708
1.1713319
1.1718317
1.1727931
1.1724613
1.1731757
1.172287
1.1719022
1.1717134
1.1721817
1.172813
1.1717439
1.1719757
1.1712353
1.1715055
1.1710825
1.1706776
1.1705082
1.1713552
1.1729533
1.172333
1.173304
1.1721145
1.172512
1.1728237
1.1728329
1.1730711
1.1732077
1.1731266
1.1728877
1.1726343
1.1723637
1.1723899
1.1717968
1.1717235
1.1721247
1.1725113
1.1726077
1.1733474
1.1730798
1.1730814
1.1730531
1.1731958
1.1733277
1.1733953
1.1734775
1.1734307
1.1734336
1.1736837
1.1735669
1.1734727
1.1734049
1.1734067
1.1733812
1.1735016
1.1735136
1.173558
1.1735245
1.1735246
1.1736895
1.173679
1.173724
1.173702
1.1737403
1.1737304
1.1737118
1.173667
1.1734972
1.173504
1.1736707
1.1736424
1.1734927
1.1735123
1.1736344
1.173674
1.173539
1.1735602
1.1737119
1.1737389
1.1737106
1.1737417
1.1738325
1.173743
1.1736628
1.1736707
1.1736941
1.1736695
1.1735252
1.1735534
1.1735389
1.1735736
1.1735894
1.1736948
1.1737647
1.173702
1.1737757
1.1737992
1.1737203
1.1737757
1.173831
1.1736966
1.1737636
1.1736273
1.1736649
1.1736443
1.1737318
1.1738497
1.1736949
1.1738329
1.1737055
1.1737638
1.1734874
1.1735601
1.1736232
1.1737064
1.1737286
1.1736357
1.1735475
1.1735862
1.1734887
1.1736037
1.1736924
1.1732921
1.1733962
1.1734872
1.1736041
1.173766
1.1736346
1.1737643
1.1738303
1.1737834
1.1738292
1.1739012
1.1738302
1.1737999
1.1738007
1.1738006
1.1737118
1.1737158
1.1737458
1.1736934
1.1735891
1.1736363
1.1735789
1.1735978
1.1736188
1.1736157
1.1735935
1.1737136
1.1735952
1.173688
1.1736053
1.1736904
1.1736448
1.1735343
1.1734691
1.1734053
1.1734416
1.1734647
1.1735802
1.1735703
1.1735322
1.1734826
1.173377
1.1733789
1.1732913
1.173296
1.1733559
1.1732222
1.1731589
1.173152
1.1732143
1.173351
1.1733884
1.1735366
1.1735428
1.1732803
1.1732811
1.1733148
1.1733081
1.17338
1.173507
1.1732259
1.1732836
1.1735174
1.173378
1.1732978
1.173211
1.1732025
1.1733401
1.1733983
1.1734053
1.1733828
1.1732955
1.1732875
1.1731515
1.1731612
1.1731206
1.1731041
1.1730979
1.1731007
1.1732579
1.1732669
1.1732483
1.1733465
1.1733389
1.1734873
1.1734954
1.1734598
1.1733449
1.1733462
1.1733381
1.1733347
1.1733349
1.1733958
1.17352
1.1733675
1.1733677
1.1735215
1.1734036
1.1733866
1.1734726
1.1734324