/*--------------------------------*- C++ -*----------------------------------*\
  =========                 |
  \\      /  F ield         | OpenFOAM: The Open Source CFD Toolbox
   \\    /   O peration     | Website:  https://openfoam.org
    \\  /    A nd           | Version:  7
     \\/     M anipulation  |
\*---------------------------------------------------------------------------*/
FoamFile
{
    version     2.0;
    format      ascii;
    class       volScalarField;
    location    "480";
    object      k;
}
// * * * * * * * * * * * * * * * * * * * * * * * * * * * * * * * * * * * * * //

dimensions      [0 2 -2 0 0 0 0];

internalField   nonuniform List<scalar> 
24866
(
3468.0716
3534.7255
3544.0125
4134.4706
4720.524
4709.4527
4668.8072
4720.9908
4726.3621
4663.2359
4689.341
4689.6802
4664.0806
4726.9139
4720.4741
4670.7035
4704.973
4722.0256
4706.6942
4690.9979
4624.2181
4736.622
4869.5676
4808.5672
4680.6341
4596.4656
4694.8287
4817.7237
4804.8803
4641.1204
4711.5849
4709.6308
4709.6238
4711.5907
4641.3286
4804.9688
4818.2783
4695.362
4595.9064
4679.9611
4808.3829
4869.5517
4736.6734
4624.23
4691.5315
4706.4067
4722.7643
4704.3668
4671.1589
4719.2837
4727.8535
4663.819
4689.3483
4689.6093
4664.4657
4725.9339
4721.481
4667.8367
4710.6898
4719.4646
4752.6095
4724.5008
4753.0993
4755.0713
4682.0332
4715.4451
4776.2415
4764.5617
4682.553
4685.1263
4685.3531
4682.9456
4764.7573
4776.2907
4715.6651
4681.198
4751.0707
4750.6709
4715.2507
4735.338
4728.979
4629.0705
4642.9317
4701.2064
4720.518
4783.7916
4715.4508
4654.9224
4727.1819
4792.218
4720.744
4663.0079
4703.5673
4707.454
4700.5278
4683.5391
4671.6705
4691.7127
4686.4663
4696.1156
4692.3833
4695.6369
4691.4889
4697.8623
4702.1257
4702.1822
4700.0026
4704.9691
4698.6879
4691.2084
4642.1998
4744.1189
4740.8901
4714.0631
4679.3661
4693.9758
4695.7227
4698.2189
4701.9709
4704.2193
4703.7522
4700.451
4703.6657
4698.5236
4692.9095
4689.9201
4676.2491
4682.5732
4685.4607
4692.5693
4699.8322
4705.2312
4708.1929
4706.7163
4707.2819
4705.4069
4701.9911
4700.0326
4695.7361
4698.7155
4679.3956
4642.2406
4744.1121
4740.8761
4537.8759
4539.0649
4169.738
4112.9493
4124.4618
4124.4619
4112.9424
4052.9214
4066.355
4590.7973
4589.6348
4084.2934
4101.8255
4012.0461
4082.5028
4063.0193
3947.5412
3918.9623
4025.9223
4095.7859
4121.6582
4133.4637
4110.7663
4071.3109
4118.4849
4120.6354
4047.9965
4047.7702
4047.3146
4046.9549
4119.8231
4118.5369
4070.4435
4113.8099
4179.8771
4190.8575
4548.8809
4550.8813
4166.1736
4015.2354
4177.9443
4123.9044
4074.2234
4688.6134
4695.4124
4688.625
4696.1381
4689.4322
4675.7271
4682.3904
4685.2391
4692.2842
4699.4325
4704.6922
4707.5579
4708.2216
4708.8532
4707.3087
4704.2639
4702.2345
4703.6157
4705.0003
4720.7917
4691.2309
4098.8535
4124.8145
4452.3975
4590.9325
4066.1361
4052.9417
3518.2731
3530.8437
3536.3008
3536.2978
3530.827
3518.2336
3493.7386
3503.8445
3512.1926
3489.5317
3505.7534
3492.8271
3448.8667
3432.1632
3498.1959
3522.121
3535.9747
3542.1279
3533.1014
3534.1089
3532.6759
3535.4451
3517.4518
3513.4024
3513.3153
3516.811
3534.596
3532.2237
3533.4407
3078.4711
3076.3699
3077.8635
3077.7891
3076.6066
3535.0929
4114.5066
4070.2285
4119.001
4119.5316
4048.28
4047.68
4047.3626
4047.6224
4120.5075
4117.6884
4071.8466
4110.4544
4133.9952
4121.6109
4096.1864
4026.0486
3919.0985
4440.055
4637.0918
4568.4657
4063.332
4082.8208
4012.2051
4101.5898
4083.8193
4590.0403
4466.3001
4161.619
4120.7696
3992.2156
4156.5013
4190.0296
4199.5847
4577.7959
4792.4052
4727.2991
4654.8918
4663.0402
4720.4956
4707.5183
4702.2032
4703.8242
4706.7697
4703.7403
4705.2796
4704.7134
4702.0686
4697.4915
4692.2845
4692.3446
4694.5192
4697.5095
4699.4735
4699.8944
4698.6107
4695.7478
4700.5457
4697.9636
4700.6202
4701.2252
4643.0318
4683.6783
4691.6169
4691.8656
4692.5064
4693.0002
4692.6378
4692.3482
4692.321
4692.3538
4696.1416
4689.4956
4685.3326
4685.535
4690.0025
4696.2477
4686.6463
4715.412
4671.8541
4629.246
4729.331
4735.3114
4531.8343
4176.6935
4155.7616
4525.8575
4137.9168
4159.4152
3994.0054
3453.582
3522.4192
3498.3462
3432.2663
3449.029
3948.0411
3957.0313
4094.1064
4122.3339
4456.5218
4438.2341
4123.1091
3973.8328
4138.0449
3423.2534
3492.9241
3505.7416
3489.4931
3512.2914
3503.926
3493.7475
3045.9132
3065.4757
3071.4356
3072.1794
3072.1774
3071.424
3065.4532
3045.9128
3047.9515
3054.1482
3046.6603
3051.5877
3041.4057
3020.7007
3015.5109
3053.6898
3066.3162
3072.5521
3076.3982
3075.6999
3079.0812
3075.2105
3076.9183
3071.7893
3070.6198
3070.2665
3071.0117
3076.1879
3074.6672
2706.1144
2709.6708
2707.364
2706.8897
2706.8776
2707.5318
2709.8231
3078.5792
3533.4133
3532.6264
3534.8729
3517.5497
3513.3853
3513.4412
3517.3679
3535.2275
3532.1568
3534.2807
3532.9939
3542.4464
3536.0667
3072.6516
3066.5208
3053.8245
3015.6119
3020.8348
3041.4971
3051.6141
3046.6563
3054.1854
3047.9663
2685.1288
2684.9998
2698.9278
2702.4257
2702.4762
2702.4758
2702.4175
2698.9129
2684.9952
2685.1166
2689.2475
2687.2434
2688.3785
2680.8076
2669.6178
2668.2968
2691.3224
2699.4777
2703.1929
2705.8155
2707.1417
2710.2142
2706.6552
2707.7125
2706.6859
2706.3203
2706.0825
2706.1111
2707.0942
2406.9758
2406.3935
2409.1741
2407.1479
2406.1497
2406.1631
2407.2755
2409.3307
2406.6521
2407.2767
2707.4375
3076.5275
3071.7916
3070.6265
3070.4021
3071.4305
3076.6628
3074.8363
3079.0876
3075.6396
3076.5671
2705.8979
2703.2705
2699.6152
2691.43
2668.3834
2669.7184
2680.8792
2688.4056
2687.2488
2689.2728
2393.0307
2390.0877
2390.7521
2400.4878
2402.625
2402.5881
2402.5874
2402.6188
2400.477
2390.7462
2390.0775
2393.0124
2393.2162
2392.795
2386.989
2380.4892
2380.8528
2395.3114
2400.8197
2403.3992
2405.313
2407.1032
2409.6399
2406.8816
2407.4808
2407.9221
2407.9246
2407.7482
2407.4841
2162.3357
2161.3396
2161.0345
2163.106
2161.4122
2160.3845
2160.4056
2161.5131
2163.2499
2161.25
2161.592
2162.6313
2407.8827
2706.6579
2706.3436
2706.2083
2706.4227
2707.4564
2706.3554
2710.1412
2707.0875
2407.0488
2405.3477
2403.4531
2400.9124
2395.3947
2380.9242
2380.5657
2387.0457
2392.8207
2393.2259
2151.323
2150.3571
2148.1982
2149.2035
2156.0796
2157.4175
2157.4214
2157.4202
2157.4125
2156.0711
2149.1972
2148.1896
2150.3434
2151.3119
2150.2703
2145.7586
2141.7867
2142.895
2152.3912
2156.2102
2158.1778
2159.6663
2161.4092
2163.4884
2161.4547
2161.7507
2162.6746
2162.8967
2162.7632
1959.8928
1959.4073
1958.3526
1958.2152
1959.7292
1958.3668
1957.4781
1957.5
1958.4483
1959.855
1958.3931
1958.5601
1959.6305
1960.0077
2162.9131
2407.9484
2407.8536
2407.7204
2407.2591
2406.6416
2409.5397
2163.3867
2161.3569
2159.6767
2158.2138
2156.2742
2152.4557
2142.9532
2141.8459
2145.8039
2150.2938
1949.4104
1950.6263
1949.536
1947.9569
1949.057
1953.9942
1954.8848
1954.9541
1954.9529
1954.8805
1953.9873
1949.051
1947.9494
1949.5251
1950.615
1949.3893
1945.8679
1943.3505
1944.726
1951.2409
1953.99
1955.5937
1956.8108
1958.3448
1960.0295
1958.5659
1958.6872
1959.6737
1959.9956
1789.857
1789.7751
1789.3028
1788.3639
1788.3142
1789.4072
1788.3516
1787.641
1787.661
1788.4184
1789.5145
1788.4607
1788.5333
1789.4751
1789.8665
1789.8359
1959.9627
2162.8475
2162.5197
2161.5668
2161.2642
1958.4152
1959.9372
1958.2973
1956.8099
1955.6181
1954.0357
1951.2914
1944.7736
1943.3974
1945.9048
1778.1733
1780.9127
1782.1142
1781.1554
1780.0216
1781.081
1784.6812
1785.3313
1785.4572
1785.456
1785.3276
1784.6753
1781.0754
1780.0151
1781.1463
1782.1031
1780.8939
1778.1429
1776.5104
1777.9039
1782.5419
1784.6095
1785.97
1786.9962
1788.2905
1789.6333
1788.6003
1788.6367
1789.5166
1644.895
1645.2122
1645.1467
1644.7229
1643.9486
1643.9351
1644.716
1643.921
1643.3767
1643.3942
1643.9764
1644.8067
1644.0559
1644.0866
1644.8573
1645.2198
1645.1991
1644.8233
1789.424
1959.5546
1958.5384
1788.5173
1788.4811
1789.5538
1788.249
1786.9905
1785.9869
1784.6435
1782.5823
1777.9432
1776.5483
1634.4217
1635.4875
1637.6279
1638.729
1637.9759
1637.1799
1638.1312
1640.7906
1641.307
1641.4707
1641.4695
1641.3038
1640.7856
1638.1262
1637.1742
1637.9681
1638.7186
1637.6112
1635.462
1634.3904
1635.68
1639.0796
1640.6951
1641.8707
1642.749
1643.8208
1644.8792
1644.1645
1644.1705
1519.8081
1520.3828
1520.6595
1520.6067
1520.2434
1519.6277
1519.6219
1520.175
1519.5852
1519.1795
1519.1945
1519.6316
1520.2514
1519.7218
1519.7402
1520.3495
1520.6656
1520.6518
1520.3272
1519.7324
1644.0754
1644.07
1644.8124
1643.7852
1642.7418
1641.8829
1640.7214
1639.1125
1635.7129
1512.9759
1511.8384
1512.5417
1514.2147
1515.1858
1514.6353
1514.0886
1514.907
1516.8936
1517.3248
1517.5079
1517.5068
1517.3219
1516.8891
1514.9024
1514.0835
1514.6285
1515.1762
1514.1998
1512.5199
1511.8122
1512.9482
1515.498
1516.7945
1517.8164
1518.5728
1519.4535
1520.2871
1519.8035
1411.5336
1411.5493
1411.9993
1412.2322
1412.1894
1411.8858
1411.4026
1411.3915
1411.781
1411.3441
1411.0475
1411.0603
1411.3831
1411.8455
1411.4744
1411.4947
1411.9705
1412.2372
1412.2282
1411.9562
1411.4891
1411.4734
1519.7282
1520.2316
1519.4232
1518.5654
1517.8255
1516.8154
1515.5251
1407.8903
1405.942
1404.9685
1405.4343
1406.7439
1407.5827
1407.2038
1406.8363
1407.5215
1409.0218
1409.388
1409.5764
1409.5755
1409.3855
1409.0179
1407.5175
1406.8318
1407.1977
1407.5738
1406.7305
1405.4157
1404.9462
1405.9184
1407.8677
1408.9251
1409.8141
1410.4672
1411.1898
1411.8528
1316.6142
1316.41
1316.4398
1316.7931
1316.9855
1316.9506
1316.7003
1316.3206
1316.3
1316.5739
1316.2465
1316.0332
1316.0442
1316.2796
1316.6284
1316.3693
1316.3964
1316.7685
1316.9897
1316.9841
1316.7597
1316.3918
1316.3615
1316.5761
1411.8068
1411.1642
1410.4602
1409.8209
1408.9419
1314.1593
1313.2947
1311.7802
1310.9609
1311.2709
1312.2984
1313.0146
1312.771
1312.5295
1313.0942
1314.2401
1314.5505
1314.7346
1314.7337
1314.5482
1314.2367
1313.0906
1312.5254
1312.7656
1313.0065
1312.2865
1311.2548
1310.942
1311.7602
1313.2757
1314.1457
1314.9183
1315.4833
1316.0777
1231.8841
1232.3276
1232.2024
1232.2447
1232.5257
1232.6835
1232.6548
1232.4496
1232.1481
1232.1186
1232.3118
1232.0612
1231.9101
1231.9194
1232.0895
1232.3581
1232.1767
1232.2108
1232.5051
1232.6871
1232.6837
1232.4998
1232.2065
1232.1631
1232.296
1231.8654
1316.0559
1315.4768
1314.9235
1230.9071
1230.2433
1229.529
1228.3334
1227.65
1227.8576
1228.6663
1229.2743
1229.1327
1228.9784
1229.44
1230.3262
1230.5863
1230.7601
1230.7594
1230.5843
1230.3233
1229.4369
1228.9749
1229.128
1229.2672
1228.6559
1227.8438
1227.6338
1228.3164
1229.5132
1230.2321
1230.9033
1231.3927
1156.4648
1156.8735
1157.2484
1157.1763
1157.228
1157.4558
1157.5849
1157.5614
1157.3933
1157.1499
1157.1137
1157.2515
1157.0543
1156.949
1156.9568
1157.0784
1157.291
1157.1629
1157.2021
1157.4388
1157.5883
1157.5863
1157.4357
1157.1974
1157.1443
1157.2219
1156.8574
1156.4591
1231.3867
1232.4352
1233.4909
1231.6014
1232.0731
1233.0671
1229.5175
1230.3065
1231.3616
1231.8982
1231.4027
1230.6514
1155.9527
1154.481
1154.8576
1155.5522
1155.7672
1155.9277
1155.9269
1155.7656
1155.5499
1154.8554
1154.4785
1154.5721
1154.6373
1154.1195
1153.4777
1153.3354
1153.9027
1154.8615
1155.4572
1156.04
1088.9524
1089.3216
1089.6642
1089.9877
1089.9508
1090.0084
1090.197
1090.3029
1090.2832
1090.145
1089.9449
1089.9048
1090.0048
1089.8446
1089.7724
1089.7795
1089.8656
1090.0389
1089.9467
1089.9888
1090.1829
1090.3058
1090.3049
1090.1813
1089.9836
1089.9243
1089.9654
1089.6502
1089.3161
1088.9538
1156.0426
1155.4661
1154.8746
1153.9169
1153.3488
1153.4892
1154.1281
1154.6431
1154.5757
1087.7368
1087.6826
1087.9906
1088.5427
1088.7176
1088.8633
1088.8631
1088.7169
1088.5418
1087.9901
1087.6823
1087.7358
1087.7486
1087.31
1086.8004
1086.7025
1087.1739
1087.9524
1088.4464
1028.0834
1028.5227
1028.8441
1029.1332
1029.4177
1029.4032
1029.4635
1029.6233
1029.7108
1029.6942
1029.5797
1029.4116
1029.37
1029.4447
1029.3102
1029.2621
1029.2683
1029.3288
1029.4746
1029.4063
1029.449
1029.6115
1029.7133
1029.7131
1029.6109
1029.4431
1029.3809
1029.3984
1029.1204
1028.8381
1028.5222
1028.0869
1088.4531
1087.9625
1087.1847
1086.7124
1086.8085
1087.3155
1087.7516
1027.4867
1027.508
1027.4808
1027.7344
1028.18
1028.32
1028.4511
1028.4515
1028.3213
1028.1823
1027.7385
1027.4861
1027.5133
1027.4905
1027.1186
1026.7116
1026.6424
1027.0345
1027.6743
973.10809
973.44468
973.82559
974.10517
974.35059
974.60543
974.60406
974.66422
974.80321
974.8764
974.8621
974.76583
974.621
974.58039
974.63874
974.52116
974.49039
974.49599
974.53789
974.66529
974.61235
974.65345
974.79316
974.8786
974.87881
974.79289
974.64681
974.58457
974.58781
974.33783
974.09741
973.82123
973.44211
973.10524
1027.6799
1027.0396
1026.6458
1026.7128
1027.1171
972.61275
972.92661
972.97134
972.96127
973.1728
973.53887
973.64854
973.7665
973.76851
973.65459
973.54911
973.18823
972.98075
972.9923
972.9469
972.63063
972.30288
972.25069
972.57717
923.03678
923.47961
923.75016
924.07869
924.32079
924.52923
924.76274
924.76744
924.82449
924.94981
925.01291
925.00026
924.91694
924.78744
924.75013
924.79896
924.69044
924.67224
924.67742
924.70587
924.82318
924.77898
924.8164
924.94098
925.0147
925.01515
924.94085
924.80901
924.74962
924.74561
924.51493
924.30877
924.06657
923.73538
923.45927
923.00633
972.57096
972.24021
972.28859
922.76286
923.02489
923.2918
923.34987
923.34889
923.52941
923.83715
923.91944
924.02719
924.03284
923.93663
923.86553
923.57084
923.40112
923.40691
923.34979
923.07988
922.81163
922.76605
877.53818
877.75773
878.12462
878.32777
878.6064
878.81282
878.98816
879.20947
879.21418
879.26523
879.38484
879.44247
879.43095
879.35505
879.23227
879.20055
879.24532
879.13643
879.1275
879.13242
879.1511
879.26802
879.22733
879.25885
879.37679
879.44385
879.44446
879.37672
879.25093
879.19717
879.19148
878.96998
878.79217
878.57885
878.28822
878.06844
877.67688
877.43269
922.72502
923.76496
924.2142
924.68501
924.91269
924.72454
924.31355
878.89473
877.97192
878.13165
878.3987
878.45422
878.55664
878.56993
878.49536
878.46595
878.22861
878.09451
878.10638
878.04786
877.81634
877.58957
836.08505
836.01022
836.17505
836.4682
836.59144
836.817
836.98606
837.12912
837.34988
837.34913
837.39146
837.51586
837.57387
837.56318
837.48825
837.36119
837.33713
837.38225
837.25998
837.25774
837.26251
837.27425
837.40403
837.36255
837.38621
837.50839
837.57497
837.5757
837.50841
837.37807
837.33243
837.32958
837.10359
836.94929
836.76043
836.50415
836.3424
835.99575
835.77766
835.81903
877.46769
877.68228
877.90928
877.97203
836.25022
836.24066
836.38898
836.63075
836.65646
836.76086
836.78905
836.74502
836.77464
836.59533
836.50235
836.5372
836.48902
836.28901
798.04479
797.84258
797.71885
797.81327
798.02189
798.0383
798.1991
798.32445
798.43282
798.66812
798.6572
798.68922
798.83261
798.89792
798.8875
798.80624
798.6609
798.64576
798.69458
798.54122
798.54316
798.54782
798.55522
798.71564
798.67007
798.68484
798.8255
798.89912
798.89998
798.82572
798.67681
798.64071
798.64407
798.39531
798.26022
798.09205
797.86564
797.77052
797.45571
797.25486
797.31456
797.47172
835.99899
836.19141
797.63333
797.67881
797.64611
797.79062
798.02039
798.00888
798.12508
798.17971
798.18304
798.30262
798.19457
798.15996
798.24232
798.21922
762.90057
762.74668
762.52302
762.31705
762.30856
762.40468
762.27187
762.345
762.41528
762.48416
762.75143
762.72768
762.75032
762.92925
763.0101
763.00016
762.90471
762.72493
762.71762
762.77161
762.56663
762.56956
762.57403
762.58013
762.79164
762.74042
762.7475
762.92297
763.01172
763.01273
762.92342
762.73965
762.71202
762.72294
762.43006
762.30947
762.15912
761.96049
761.94598
761.65486
761.46619
761.55831
761.70364
761.83714
761.85962
761.78763
761.93204
762.15931
762.09951
762.23835
762.33515
762.41293
762.66794
762.66112
762.71857
762.88087
730.27232
730.35249
730.21518
729.94821
729.62453
729.46006
729.39135
729.05623
729.008
729.00874
729.03446
729.34788
729.31488
729.33478
729.56293
729.66683
729.65799
729.54225
729.31561
729.31026
729.3665
729.0946
729.09414
729.09823
729.10696
729.38456
729.3305
729.33565
729.55854
729.66825
729.66936
729.559
729.32738
729.30193
729.31679
728.96283
728.8506
728.71588
728.54591
728.62471
728.35858
728.18404
728.31933
728.46018
728.56748
728.56014
728.43624
728.57695
728.80251
728.68463
728.85319
729.0095
729.19782
729.64337
729.79162
729.99515
700.04814
700.46458
700.612
700.48861
700.16893
699.70374
699.30025
698.97407
698.38497
698.17776
698.09936
698.08621
698.44386
698.42193
698.45698
698.73242
698.85874
698.85225
698.71903
698.44965
698.4315
698.47428
698.14261
698.13462
698.13801
698.15285
698.48887
698.44731
698.46529
698.73172
698.85984
698.86086
698.73152
698.45518
698.41586
698.41715
698.00633
697.89459
697.773
697.63562
697.80529
697.58698
697.44463
697.61414
697.74263
697.82293
697.78906
697.61832
697.73943
697.9441
697.77128
697.96548
698.19139
698.52851
699.21721
699.61416
672.41807
673.23343
673.78651
673.97105
673.8577
673.51444
672.91683
672.12447
671.35712
670.46684
670.08091
669.93364
669.89443
670.2628
670.31131
670.39807
670.68729
670.82335
670.82003
670.6854
670.41034
670.34759
670.32695
669.98428
669.9755
669.97797
669.99116
670.33637
670.35683
670.41826
670.69238
670.82494
670.82515
670.69104
670.40592
670.31911
670.25459
669.83217
669.72215
669.61112
669.50264
669.73307
669.64608
669.58582
669.72653
669.79168
669.83743
669.802
669.62736
669.69171
669.81231
669.6146
669.8192
670.10228
670.60834
671.58952
646.94272
648.63017
650.09131
650.73279
650.86064
650.75395
650.48153
649.80236
648.36368
646.73115
645.44135
644.92596
644.76007
644.68748
644.96458
645.24562
645.42482
645.64524
645.84635
645.86189
645.6717
645.46077
645.31789
645.08429
644.8539
644.89875
644.89954
644.85615
645.08692
645.31998
645.45949
645.6572
645.84886
645.86305
645.66929
645.44475
645.27405
644.99357
644.68162
644.62553
644.52241
644.39743
644.60765
644.9127
645.03021
644.96026
644.83695
644.88064
644.8671
644.78292
644.71197
644.56221
644.43942
644.65657
644.94367
645.57024
622.80543
624.69499
628.77249
631.54966
631.79245
631.64199
631.55258
631.57491
631.29023
628.5354
624.50944
622.69488
621.90142
621.79761
622.10158
621.59414
623.07302
623.17379
623.16833
624.11189
624.11526
623.19793
623.23451
623.18169
621.77796
622.36512
622.12118
622.1205
622.36256
621.77457
623.17515
623.21782
623.18467
624.11409
624.11233
623.18726
623.20651
623.12608
621.677
622.19394
621.85275
621.75759
621.94063
621.63614
623.65227
623.20379
622.61949
622.43169
623.25417
622.55141
622.62411
622.58048
621.247
621.88284
621.70089
621.91464
604.68231
604.93602
606.79586
613.59361
618.98993
617.85812
617.44039
617.34722
617.6671
618.77045
613.38639
606.65247
604.82504
604.71462
604.59068
604.6895
604.54362
605.19874
605.35979
605.3953
605.39187
605.40722
605.44832
605.4409
605.32715
604.77062
605.00737
605.07455
605.0772
604.99523
604.75163
605.30813
605.42605
605.40693
605.39459
605.40482
605.42907
605.42254
605.27782
604.65077
604.86746
604.79399
604.85234
604.61562
605.09744
608.78541
608.6579
605.82324
605.0037
604.87658
604.92861
604.93063
604.7502
604.25766
604.44421
604.5191
588.7972
588.73693
589.27805
591.08166
590.44577
589.61039
589.62258
589.38578
589.58881
590.17729
591.12013
589.05122
588.96619
588.71128
589.35868
589.93135
589.24959
589.17254
590.62639
589.92032
589.94456
590.69726
589.25185
589.3979
590.21919
589.67957
589.44105
589.46798
589.63111
590.21893
589.35319
589.23222
590.62585
589.9177
589.94378
590.67025
589.20152
589.39961
590.0315
589.72953
589.00924
589.68315
589.19624
590.92417
588.22059
587.71697
590.45614
590.69253
589.64355
590.316
588.95101
588.75601
589.82213
588.88536
588.32138
588.49188
589.87667
589.97302
590.16244
590.62604
590.59594
590.29976
590.20679
590.1813
590.34611
590.1934
588.7716
588.84895
590.42531
590.2577
589.79844
589.40915
589.23857
588.01933
588.16122
589.4756
589.48689
589.70664
590.26422
590.81164
588.67779
588.57226
603.45642
603.27268
607.04339
607.55855
617.43037
608.14576
607.52953
605.82377
607.68585
616.91485
607.27347
602.98045
603.15986
607.11539
606.8618
604.92989
590.09422
589.7426
590.49067
590.4009
590.42797
589.7031
590.37291
591.00485
588.81378
589.08902
603.38786
603.20561
606.97703
616.97151
607.33509
607.90552
607.47842
605.32778
606.07469
610.48035
618.67332
609.98598
609.96869
610.47911
607.78511
603.32112
603.34203
607.61835
609.84826
609.38728
618.47382
607.98583
608.20236
604.55029
589.80349
590.58309
590.02467
590.39026
588.41154
587.91219
603.55124
607.71095
608.32937
618.20285
607.92342
603.58294
607.54639
605.70111
623.43628
624.72893
623.74961
621.89912
623.26938
622.78264
623.89541
646.10903
671.63012
672.57563
671.10066
645.43831
646.51127
647.57691
645.87583
671.84375
672.91079
671.17062
645.87606
646.26191
671.73534
671.9726
646.40778
624.0641
605.38232
605.81746
605.196
605.74919
605.53857
604.44383
623.14823
625.16784
626.02858
623.99637
625.07116
626.15274
606.12673
606.06106
603.65607
603.89347
604.4408
605.00365
606.32065
624.374
623.90882
626.30322
627.18494
629.51134
614.35179
606.89043
604.67093
604.26506
604.1256
604.53016
606.67906
614.14649
613.78471
613.65696
613.74023
613.96188
630.1572
630.20952
628.29019
628.10904
607.59325
590.51216
590.42596
589.30764
582.41896
579.29692
578.64382
578.62238
579.2691
582.34663
583.25272
584.84232
585.68126
585.78919
584.97213
583.57476
582.71205
579.72687
579.10186
579.09875
579.72121
582.7191
583.59241
585.06347
585.89387
585.89341
589.6385
590.48182
590.17123
588.37107
588.75506
590.75484
590.35571
590.36817
590.77435
588.74204
588.38261
590.14532
590.45661
589.61716
585.84345
585.75282
584.89042
583.29826
582.35091
579.22353
578.55522
578.61442
579.29773
582.49144
583.44028
584.92531
585.78337
585.72455
584.87852
583.34139
582.892
580.64212
574.76012
565.84357
556.37842
550.47487
550.51428
556.46412
565.93168
574.80079
580.71012
582.99609
583.64071
589.69535
590.96148
590.90192
590.88073
591.06483
588.53326
579.80333
582.76968
581.48659
577.63316
566.10061
558.44855
552.09984
544.72025
539.03305
533.92355
531.55311
531.53346
533.87174
538.94935
544.60345
551.95656
558.33932
565.93507
552.01119
544.40627
535.47704
528.76438
522.32921
519.47582
519.4976
522.38725
528.86408
535.62085
544.5916
552.15552
544.88726
556.85854
571.16319
576.33986
575.32859
579.18532
579.18391
588.52224
591.05677
590.87483
590.89446
590.95117
589.67074
582.75383
579.7991
576.34302
575.32461
569.23568
569.2351
551.11879
534.29524
539.31467
529.1273
535.76122
526.06663
517.21293
509.74791
505.77213
505.74755
509.67866
517.09187
525.88786
535.53176
544.71118
556.6159
539.0944
528.84977
517.12677
505.69492
496.39319
491.22338
491.25345
496.48203
505.84912
517.34947
509.98966
522.76052
519.9239
531.97944
531.96756
551.12521
534.27232
522.72197
519.90415
506.03707
506.06387
491.40182
496.58539
485.4349
479.0669
479.03126
485.32739
496.40058
509.72844
522.43317
534.03511
550.77864
531.69627
519.57279
505.78092
491.20292
478.9927
471.98518
472.02455
479.10914
479.0648
491.3663
496.49794
509.92847
517.28954
529.09194
539.29483
556.88536
571.17692
577.63204
581.46215
582.96693
583.61261
585.06915
585.75034
584.24371
580.69682
574.85469
566.17237
552.22416
544.89793
535.76509
526.05414
517.19643
505.76949
496.38382
485.33084
478.95099
471.977
471.93963
478.9539
491.17188
505.7604
519.5575
531.68699
550.78494
534.01898
522.40667
509.68111
496.33
485.23504
478.92179
491.12594
491.15009
505.75666
509.72931
522.4753
528.94223
535.68915
544.67481
552.18217
558.50455
566.12071
556.73623
544.78769
539.12121
534.02135
531.67215
519.60114
519.58981
505.74232
509.67791
496.31263
505.63484
517.0877
528.83065
539.08415
556.64471
544.73174
535.55428
525.90042
517.10034
528.87282
522.4413
533.99797
531.66606
550.88744
550.89527
569.07598
571.03774
577.57781
580.6678
582.93618
585.74427
586.64601
593.23196
592.1151
588.87803
587.72293
581.29867
580.52725
580.53783
581.30891
587.77147
588.93929
592.05367
585.01384
585.68512
586.57864
585.64985
582.79608
581.21182
575.91293
574.83524
574.8333
575.90302
581.266
582.84881
585.63835
586.56168
585.65204
584.1246
580.56236
577.34275
570.64434
568.6048
568.63441
570.6929
577.34122
580.543
584.15376
590.13362
592.04151
588.77806
587.58118
581.00403
580.19913
580.18162
580.97921
587.62525
588.8297
592.02958
593.18217
599.90678
592.05617
590.11868
586.69287
595.82034
584.02183
576.75446
587.16464
575.1921
556.88801
562.67696
571.96736
581.08887
586.77409
588.91732
595.90307
587.74197
581.3462
577.49901
571.01335
576.15655
575.11869
569.0313
569.02645
575.10349
576.14067
571.01739
577.47568
566.00714
558.40963
552.06294
544.70597
539.07333
556.70035
566.05655
574.80967
580.59748
582.81455
581.28152
587.65426
581.28006
580.50715
580.5273
581.3053
587.51535
577.11986
584.16286
572.0829
561.79761
562.58211
564.17584
558.13902
555.99922
548.12187
556.0518
558.16269
553.09805
542.04285
547.30151
547.41099
542.57321
543.14244
547.22045
537.07969
532.25449
538.40969
528.82193
538.46778
547.52633
562.94325
547.38078
547.31316
542.10727
537.16097
543.2415
542.72183
532.34065
525.33227
536.81823
557.2267
575.59906
575.58635
587.48621
577.10479
584.10455
595.78789
588.81211
586.68243
581.05193
572.08089
562.92527
557.2193
534.80932
534.82189
533.82929
535.54486
535.38018
528.93119
526.85297
522.72214
508.61313
512.57252
520.08855
524.12291
532.88917
524.08465
520.05257
508.28602
511.72421
501.86101
516.44741
528.82161
535.42502
536.64535
534.64769
533.71367
535.24273
526.75242
522.6203
525.22451
512.52071
508.57766
512.45014
496.43124
493.48299
498.76284
487.38075
498.76909
501.86747
516.50141
512.48375
496.40503
493.46158
480.86777
483.24561
490.00371
483.28679
480.90909
473.64307
475.72789
477.98944
485.89038
499.66873
516.68197
520.76075
528.54329
537.4009
541.85608
532.48304
519.38072
532.53415
528.58854
515.5317
505.29245
508.8075
524.7655
520.34597
502.95759
506.49072
525.46879
544.21056
577.24097
583.11839
591.66753
599.95276
589.7137
581.77237
573.20164
567.76325
567.79391
587.18874
575.22091
576.79084
583.99863
595.75744
586.64076
581.0679
572.01799
562.74151
556.92348
534.67092
533.73343
535.27155
535.46241
536.69014
525.27313
522.64156
526.77339
528.86038
537.13733
543.1959
542.64729
547.49765
547.3588
547.27311
542.10716
538.51439
532.3337
520.14955
512.58008
508.60104
512.46965
516.49582
501.92702
496.45755
493.51169
498.84192
508.41316
511.82137
524.15934
532.98086
528.95883
520.26025
524.24184
516.64615
501.98707
490.08329
483.31838
480.94316
487.47896
480.97251
473.68166
475.7628
483.33548
496.53555
493.62802
498.92413
512.77754
508.8336
512.64086
527.08486
529.1494
537.33659
542.25313
553.2082
558.232
556.11509
561.89072
572.09628
562.64809
564.24765
558.23692
556.17749
548.26739
538.65119
547.68407
562.96367
547.49174
547.43423
543.3682
542.91509
532.56314
525.59875
537.05275
557.27949
535.71562
535.55986
534.01034
535.07423
523.00706
522.97965
508.80397
493.58621
480.92451
473.62849
473.59331
480.82483
493.4253
508.58942
522.70075
526.82134
533.80108
535.3333
535.50118
536.79455
525.29459
528.87897
537.07932
543.16552
542.69367
532.29263
538.43972
547.5077
547.30043
547.21689
542.02073
532.78598
524.01453
516.41954
512.45409
496.36424
501.75679
498.6837
512.51262
520.01884
508.19013
511.58294
523.96352
520.00125
528.78173
538.44611
535.57621
544.51017
552.09145
556.1004
558.16325
564.15982
553.10292
548.17581
556.08414
572.02049
561.84869
562.56471
558.12306
547.25095
542.01896
547.16496
537.06212
532.29935
542.67082
562.78052
547.48822
543.0929
535.35831
528.7915
516.30318
501.68775
489.86144
483.19427
475.66901
483.12608
480.77887
487.27135
498.64113
493.34101
496.23614
512.29087
508.50232
512.4538
525.26493
522.6605
526.72141
535.17283
533.64635
557.03126
536.74367
534.75264
534.75866
522.66964
508.51448
493.36272
480.80645
483.1526
475.70003
483.27717
489.93253
487.35614
498.8198
501.86105
496.4892
512.6055
516.55012
512.70131
520.16936
508.29785
498.70231
501.73771
496.25455
512.30177
516.33393
512.49532
520.0735
524.01294
511.66238
524.115
532.85343
528.8921
538.60377
532.49694
525.54828
529.08571
527.0487
535.503
533.97567
557.27249
535.05868
537.01994
535.66218
543.2783
537.23884
547.31763
542.14892
547.39737
562.94446
542.87539
547.65196
556.2127
548.30071
538.52174
532.34746
525.29025
528.80782
526.72842
535.17869
533.65105
557.03243
536.7593
535.37113
543.11193
537.09085
547.18046
542.0545
547.27715
562.79105
542.70663
547.53758
556.17472
572.04348
558.19736
553.19677
564.21214
558.22653
572.09891
561.92542
562.61656
581.03945
589.64396
581.85238
573.40224
568.08381
568.09823
573.44917
581.89292
589.68059
581.79515
573.24726
583.15645
577.2697
544.24344
556.94655
567.48156
594.46348
609.36039
623.81387
625.78445
623.77463
623.30712
605.6492
604.95727
605.31958
623.14582
624.62231
624.69851
622.9521
621.87028
622.97923
624.75407
625.48151
605.60972
605.7201
601.99366
602.11347
623.90495
625.48573
625.75069
625.16769
626.00007
604.04065
589.46083
590.49241
591.18934
608.05185
606.31897
606.63622
627.21352
627.24215
606.44112
590.07278
587.96796
587.92341
590.01566
590.17309
590.2674
607.44192
607.37128
628.21976
630.12675
629.9596
627.94071
607.44176
590.40455
590.31237
589.20118
589.37693
590.3844
591.03734
590.76623
590.23779
589.7151
589.54105
589.62572
588.47263
588.47615
589.65542
589.6376
589.90451
590.33284
590.52274
588.89474
589.02927
590.26759
590.33649
590.48604
590.95081
591.03948
591.02614
590.8951
590.34684
590.0945
589.94667
588.67894
588.58047
603.21128
603.42821
607.48841
608.10565
607.50418
617.36006
606.97369
623.82771
624.23064
626.99016
629.28021
649.46732
650.35221
650.76237
650.85296
650.57147
649.72541
673.7711
700.96334
730.97517
732.47265
731.29058
730.26373
699.69368
700.87949
699.30311
729.99895
731.4807
733.35511
730.77864
700.12167
701.21926
699.23676
729.86918
730.41848
699.8319
700.08776
730.65043
733.63876
733.10745
731.82848
735.10131
704.39483
702.71239
674.16467
675.71215
649.01002
646.93884
647.93166
674.10013
674.57251
648.29508
650.28114
650.08235
676.89815
677.23418
706.15765
703.02683
702.50199
705.71081
736.52085
737.05845
737.70435
738.71581
737.86552
736.00043
733.53976
703.00212
700.90243
672.97424
647.49262
648.23004
674.60536
676.4146
674.46919
649.28521
650.04687
651.25228
650.57242