/*--------------------------------*- C++ -*----------------------------------*\
  =========                 |
  \\      /  F ield         | OpenFOAM: The Open Source CFD Toolbox
   \\    /   O peration     | Website:  https://openfoam.org
    \\  /    A nd           | Version:  7
     \\/     M anipulation  |
\*---------------------------------------------------------------------------*/
FoamFile
{
    version     2.0;
    format      ascii;
    class       volVectorField;
    location    "480";
    object      U;
}
// * * * * * * * * * * * * * * * * * * * * * * * * * * * * * * * * * * * * * //

dimensions      [0 1 -1 0 0 0 0];

internalField   nonuniform List<vector> 
24866
(
(120.00024 -0.00061678633 -0.00074819824)
(120.00037 -0.00038946767 -0.00056504588)
(120.00035 -0.00045179888 -0.00047085277)
(120.00013 -0.00024012478 -0.00024185832)
(120.00003 -6.7136583e-05 -7.1007621e-05)
(120.00003 -6.2056459e-05 -8.5308157e-05)
(120.00002 -4.9457464e-05 -9.6934461e-05)
(120.00003 -4.9367119e-05 -9.0747999e-05)
(120.00003 -2.9997131e-05 -9.7856836e-05)
(120.00003 -2.0857982e-05 -0.00011054671)
(120.00003 -6.9017086e-06 -0.00010924714)
(120.00003 5.5758267e-06 -0.00010920475)
(120.00003 1.9721711e-05 -0.00011042228)
(120.00003 2.9326295e-05 -9.7680993e-05)
(120.00003 4.9094868e-05 -9.0849491e-05)
(120.00002 4.9652021e-05 -9.589137e-05)
(120.00003 6.3793349e-05 -8.461365e-05)
(120.00003 6.8738017e-05 -6.8750095e-05)
(120.00003 7.4319407e-05 -6.7175548e-05)
(120.00003 9.2613168e-05 -5.7776206e-05)
(120.00003 0.00011159677 -5.4904576e-05)
(120.00004 0.00012506862 -4.1275719e-05)
(120.00003 0.00011195714 -2.7303361e-05)
(120.00005 9.8502259e-05 -4.332368e-05)
(120.00003 0.00012488231 -1.2734973e-05)
(120.00003 0.00013481503 1.2776354e-06)
(120.00003 0.00011660336 1.601469e-05)
(120.00005 9.1025553e-05 4.605591e-05)
(120.00005 0.00010616951 2.8214336e-05)
(120.00003 0.0001076262 5.5473778e-05)
(120.00003 8.6489741e-05 5.6055872e-05)
(120.00003 7.1718801e-05 6.7290694e-05)
(120.00003 6.8982091e-05 7.0400204e-05)
(120.00003 5.7849966e-05 8.5229846e-05)
(120.00003 5.7363409e-05 0.00010613712)
(120.00005 2.9732139e-05 0.0001048919)
(120.00005 4.7804241e-05 9.0271574e-05)
(120.00003 1.7879856e-05 0.00011559867)
(120.00003 3.1251955e-06 0.00013403028)
(120.00003 -1.0706156e-05 0.00012418686)
(120.00005 -4.1771327e-05 9.804376e-05)
(120.00003 -2.6389481e-05 0.00011154022)
(120.00004 -4.0359659e-05 0.00012448025)
(120.00003 -5.4099411e-05 0.00011099983)
(120.00003 -5.7191514e-05 9.1897688e-05)
(120.00003 -6.6815717e-05 7.3787555e-05)
(120.00003 -6.8324495e-05 6.7918229e-05)
(120.00003 -8.4389222e-05 6.3017298e-05)
(120.00002 -9.5545668e-05 4.868209e-05)
(120.00003 -9.0769024e-05 4.8252591e-05)
(120.00003 -9.7171757e-05 2.8299749e-05)
(120.00003 -0.00011007869 1.8510749e-05)
(120.00003 -0.00010881214 4.4192072e-06)
(120.00003 -0.00010866428 -8.200098e-06)
(120.00003 -0.00010957499 -2.2313414e-05)
(120.00003 -9.7210849e-05 -3.1548193e-05)
(120.00003 -8.9861428e-05 -5.0890042e-05)
(120.00002 -9.581317e-05 -5.1086928e-05)
(120.00003 -8.3886987e-05 -6.3528074e-05)
(120.00003 -6.9943213e-05 -6.8877876e-05)
(120.00003 -0.00012475216 -9.8357143e-05)
(120.00001 -0.00012614961 -0.00012754376)
(120.00003 -9.7039419e-05 -0.00012616418)
(120.00003 -0.00010072714 -0.00012014977)
(120.00002 -0.00010424165 -0.00016159009)
(120.00002 -7.6952514e-05 -0.00017930212)
(120.00002 -6.5616267e-05 -0.00016311539)
(120.00003 -5.5783591e-05 -0.00014736589)
(120.00001 -4.1838261e-05 -0.00018599552)
(120.00001 -1.4921108e-05 -0.00019691305)
(120.00001 1.3532131e-05 -0.00019689657)
(120.00001 4.0751195e-05 -0.00018593277)
(120.00002 5.5196872e-05 -0.00014722135)
(120.00002 6.5372895e-05 -0.00016303035)
(120.00002 7.671505e-05 -0.00017899621)
(120.00002 0.00010505557 -0.00016084882)
(120.00003 0.00010242492 -0.00011946324)
(120.00003 9.8497235e-05 -0.00012427489)
(120.00001 0.00012908041 -0.00012572686)
(120.00003 0.00012931825 -9.8883933e-05)
(120.00004 0.00012763681 -0.00010323226)
(120.00002 0.00017827488 -0.00010975982)
(120.00002 0.00020863912 -9.0422297e-05)
(120.00002 0.00021545067 -6.6958408e-05)
(120.00002 0.00021338912 -1.4202004e-05)
(120.00001 0.00019322279 -2.8656706e-05)
(120.00003 0.00019223525 -1.3984883e-05)
(120 0.00019940001 9.4955839e-06)
(120.00002 0.00017690066 3.1768561e-05)
(120.00001 0.00017783683 4.8874844e-05)
(120.00002 0.00019672609 4.4499339e-05)
(120.00001 0.00022421793 1.5052876e-05)
(120.00001 0.00025768021 2.3675998e-05)
(120.00001 0.00025757134 -3.2712423e-05)
(120.00002 0.00024072388 -8.6632885e-05)
(120.00001 0.00021649632 -0.00012472026)
(120.00001 0.00017327873 -0.00013497634)
(120.00001 0.00017973635 -0.00017848817)
(120.00001 0.00013588975 -0.00016888837)
(120.00001 0.00012042856 -0.00021578682)
(120.00001 0.00015470981 -0.00021736346)
(120 0.00018963576 -0.00019127021)
(120.00001 0.00021860398 -0.00015673486)
(120.00001 0.00024741688 -0.00010979278)
(120.00001 0.00026340475 -4.2137282e-05)
(120 0.00026299937 3.3389627e-05)
(120.00001 0.00024586236 0.00010284827)
(120.00001 0.00024169133 7.7063591e-05)
(120.00001 0.00021102833 0.00011860045)
(120.00002 0.00018793177 8.0584025e-05)
(120.00002 0.0001711131 0.00010565334)
(120.00003 0.00012037618 9.8249656e-05)
(120.00003 0.00012550743 9.6936661e-05)
(120.00001 0.0001260671 0.00012453125)
(120.00001 0.00016989043 0.00013205955)
(120.00001 0.00017809259 0.00017637773)
(120.00001 0.0002163366 0.00015172861)
(120 0.00018863526 0.00018680671)
(120 0.00021606507 0.0001269388)
(119.99999 0.00023161913 4.2496402e-05)
(119.99999 0.00023207438 -5.0779102e-05)
(120 0.00021658847 -0.0001333493)
(119.99998 0.00014903556 -0.00015229355)
(120 0.00013004469 -0.00021837829)
(120.00001 0.00010647094 -0.00024890419)
(120.00001 8.1136881e-05 -0.00024806165)
(120.00001 5.7742713e-05 -0.00021532245)
(120.00002 2.2424727e-05 -0.00023539665)
(120.00001 2.8698258e-05 -0.00026647454)
(120 3.7349488e-05 -0.00026640198)
(119.99999 4.5951864e-05 -0.00023399223)
(119.99997 5.2736656e-05 -0.00016330401)
(119.99996 5.6634128e-05 -6.1403745e-05)
(119.99997 0.00015996863 -5.7438473e-05)
(119.99997 0.00015959316 4.9865068e-05)
(119.99998 0.00014825135 0.00014633965)
(120 0.0001288051 0.00021420687)
(120.00001 0.00010465928 0.00024412366)
(120.00001 0.00015352548 0.00021460411)
(120.00001 0.00012034622 0.00020944639)
(120.00001 0.00013379025 0.00016824194)
(120.00002 0.00010751714 0.00016971602)
(120.00003 9.9976659e-05 0.00011910505)
(120.00003 9.8254147e-05 0.00012395458)
(120.00003 0.00018831249 0.00025567738)
(120.00003 0.00021086454 0.00024003475)
(120.00007 0.00029715217 0.00035948748)
(120.00014 0.00019200374 0.00029026272)
(120.00012 0.00024124595 0.00023817817)
(120.00012 0.00024246646 0.00023646043)
(120.00014 0.00029400014 0.00018644876)
(120.00012 0.00032999902 0.00014841851)
(120.00012 0.0003881889 0.00016208308)
(120.00004 0.00022867879 7.0057584e-05)
(120.00005 0.00019498717 8.9486805e-05)
(120.00012 0.00039951795 0.00011968488)
(120.00013 0.00039049978 7.3081089e-05)
(120.00012 0.00040078174 6.6336436e-06)
(120.00013 0.00041655543 -5.7579194e-05)
(120.00011 0.00043919541 -0.00011942302)
(120.00015 0.00052781324 -0.00013291645)
(120.00014 0.00044621036 -0.00019611872)
(120.00013 0.00034498043 -0.00014764075)
(120.00015 0.00030749868 -0.00019240514)
(120.00013 0.000251501 -0.00023884584)
(120.00013 0.00024686089 -0.00023597398)
(120.00014 0.0002085212 -0.00028419491)
(120.00012 0.00015931333 -0.00029688381)
(120.00014 0.00017077361 -0.0003173926)
(120.00014 9.2316601e-05 -0.00034659157)
(120.00013 6.7574335e-05 -0.00035787447)
(120.00014 1.9494335e-05 -0.00037632821)
(120.00014 -2.3497094e-05 -0.00037643917)
(120.00013 -7.0822721e-05 -0.00035799501)
(120.00014 -9.4442392e-05 -0.00034717241)
(120.00014 -0.00017180405 -0.00031772027)
(120.00012 -0.00015825257 -0.00029849189)
(120.00015 -0.00020406214 -0.00028710567)
(120.00007 -0.00030189562 -0.00036113555)
(120.00007 -0.00027653221 -0.00034197325)
(120.00003 -0.00018746183 -0.00026159187)
(120.00003 -0.00021250284 -0.00024298978)
(120.00007 -0.00036336152 -0.00038985127)
(120.00013 -0.00035650083 -0.00042952521)
(120.00007 -0.00030125293 -0.00039841856)
(120.00005 -0.00036506197 -0.00036900038)
(120.00001 -0.00052517895 -0.00043061691)
(120.00001 -0.00016842063 -0.00013623868)
(120.00001 -0.00017711008 -0.000178762)
(120.00001 -0.00013460285 -0.00016993104)
(120.00001 -0.00012043774 -0.00021626974)
(120.00001 -8.1900704e-05 -0.00024825298)
(120.00001 -5.8663009e-05 -0.00021543077)
(120.00002 -2.376812e-05 -0.00023539826)
(120.00001 -2.9971325e-05 -0.00026651157)
(120 -3.8598334e-05 -0.00026641092)
(119.99999 -4.7357971e-05 -0.00023391451)
(119.99997 -5.4552908e-05 -0.00016311382)
(119.99996 -5.9049742e-05 -6.1119863e-05)
(119.99996 -5.944776e-05 5.4542699e-05)
(119.99996 5.6248763e-05 5.4249705e-05)
(119.99997 5.1769272e-05 0.0001576139)
(119.99999 4.4333748e-05 0.00022972737)
(120 3.5166459e-05 0.00026126094)
(120.00001 2.5367724e-05 0.00025614738)
(120.00001 7.883134e-05 0.00024014147)
(120.00002 4.6250709e-05 0.00019531408)
(120.00002 8.2347176e-05 0.00018658572)
(120.00005 0.0002295722 0.00054000907)
(120.00011 0.00018397296 0.00052284568)
(120.00005 0.00010237122 0.00033617771)
(120.00004 7.3443165e-05 0.00022628483)
(120.00012 0.0001676293 0.00038447117)
(120.00012 0.00015359806 0.0003259187)
(120.0003 0.00031998071 0.00064637551)
(120.00035 0.00037999186 0.00056882766)
(120.00033 0.000454899 0.0004643926)
(120.00033 0.00047185463 0.00044601922)
(120.00035 0.00057613217 0.00037059224)
(120.0003 0.00065364089 0.00031093759)
(120.00031 0.00067264496 0.00030405081)
(120.00031 0.00073045124 0.00020110476)
(120.00031 0.000734917 0.00013380089)
(120.0003 0.00077003853 2.0728701e-05)
(120.0003 0.00077270251 -9.1348987e-05)
(120.00028 0.00078919292 -0.00019628531)
(120.00032 0.00084900575 -0.00023845001)
(120.00032 0.00074215756 -0.00035163577)
(120.00031 0.0006826902 -0.00032015044)
(120.00036 0.0005957522 -0.00037589576)
(120.00034 0.00048387491 -0.0004500184)
(120.00034 0.00046322629 -0.00046484223)
(120.00037 0.0003962151 -0.00056114432)
(120.00032 0.0003283198 -0.00061799233)
(120.00035 0.00030865789 -0.00061481283)
(120.00036 0.00018632066 -0.00068297792)
(120.00034 0.00013503003 -0.00072366213)
(120.00035 3.6144509e-05 -0.00076467446)
(120.00035 -4.3078964e-05 -0.000764653)
(120.00034 -0.00014104805 -0.00072363001)
(120.00036 -0.00019052347 -0.00068326526)
(120.00035 -0.00031052514 -0.00061546002)
(120.00033 -0.00032714011 -0.00061986679)
(120.00065 -0.00059623994 -0.0011101086)
(120.00072 -0.00070962278 -0.0010376669)
(120.00069 -0.00083397354 -0.00086589896)
(120.00069 -0.0008554439 -0.00084647693)
(120.00072 -0.0010267917 -0.00072211602)
(120.00037 -0.0005582267 -0.00039789745)
(120.00014 -0.00028347294 -0.00020898681)
(120.00012 -0.00029468916 -0.00016274206)
(120.00014 -0.00031476768 -0.0001762986)
(120.00014 -0.00034497132 -9.9206148e-05)
(120.00013 -0.00035549757 -7.5244717e-05)
(120.00014 -0.00037454459 -2.767376e-05)
(120.00014 -0.00037479505 1.5645863e-05)
(120.00013 -0.00035646838 6.3871825e-05)
(120.00013 -0.00034520417 8.9021014e-05)
(120.00013 -0.00031628652 0.00016753046)
(120.00011 -0.00029585761 0.00015646724)
(120.00014 -0.00028290145 0.00020582719)
(120.00013 -0.00023465551 0.00024429529)
(120.00013 -0.00023722065 0.00024944313)
(120.00015 -0.00019049174 0.00030524322)
(120.00012 -0.00014553134 0.00034302729)
(120.00014 -0.00019256773 0.00044370345)
(120.00006 -7.8223847e-05 0.00026148288)
(120.00002 -6.4293015e-05 0.00026832944)
(120.00004 -7.2953376e-05 0.00022866333)
(120.00011 -0.00011525874 0.00043662606)
(120.00013 -5.3246565e-05 0.0004134814)
(120.00011 1.174965e-05 0.00039825895)
(120.00012 7.8344077e-05 0.00038806655)
(120.00012 0.00012516089 0.00039650046)
(120.00005 9.2972265e-05 0.00019320343)
(120.00004 0.00010642628 0.00030620264)
(120.00009 0.00015186772 0.00048481251)
(120.00011 0.00020889466 0.00050116531)
(120.00015 0.00019922764 0.00059227436)
(120.0001 0.00014100562 0.00052717081)
(120.0001 0.00010867811 0.00056014344)
(120.00009 8.8034062e-05 0.00061831769)
(120.00003 4.9269806e-05 0.00042225786)
(120.00001 5.0689281e-05 0.00017649793)
(120.00002 3.3985475e-05 0.00017553131)
(120 1.1208334e-05 0.00019827469)
(120.00001 1.6717796e-05 0.00022290191)
(120.00002 -1.2792458e-05 0.00021232942)
(120.00001 -3.1130147e-05 0.0002560935)
(120.00001 -4.0455611e-05 0.0002616946)
(119.99999 -4.9022404e-05 0.00023016375)
(119.99997 -5.5596476e-05 0.00015793064)
(119.99998 -0.00015055763 0.00014698226)
(119.99997 -0.00016145242 5.06052e-05)
(119.99997 -0.00016114337 -5.6684362e-05)
(119.99998 -0.0001497942 -0.00015183703)
(120 -0.00013054182 -0.00021823638)
(120.00001 -0.00010704305 -0.00024901417)
(120.00001 -0.00015428664 -0.00021770656)
(120 -0.0001891677 -0.00019104519)
(119.99999 -0.00021635466 -0.0001325775)
(119.99999 -0.00023210745 -4.9461725e-05)
(119.99999 -0.00023230165 4.3865211e-05)
(119.99999 -0.00021679938 0.00012805826)
(120 -0.0001897963 0.00018781598)
(120 -0.00013171823 0.00021469103)
(120.00001 -0.00010823664 0.00024573062)
(120.00001 -8.5156948e-05 0.00023931087)
(120.00002 -6.5532877e-05 0.00021427632)
(120.00002 -8.9161688e-05 0.00020741612)
(120.00001 -0.00012341477 0.00021513413)
(120.00001 -0.00015534627 0.0002169893)
(120.00001 -0.00017730553 0.00017824595)
(120.00001 -0.00021608396 0.00015302601)
(120.00001 -0.00024750185 0.00010464233)
(120 -0.00026489903 3.5414315e-05)
(120 -0.00026479912 -4.0565081e-05)
(120.00001 -0.00024733685 -0.00010895363)
(120.00001 -0.00021601263 -0.00015610028)
(120.00001 -0.00021480819 -0.00012214886)
(120.00001 -0.00024679873 -8.3653516e-05)
(120.00001 -0.00026509476 -3.1724043e-05)
(120.00001 -0.00026515396 2.6990655e-05)
(120.00001 -0.00024684672 7.9528789e-05)
(120.00001 -0.00021469693 0.00011892076)
(120.00001 -0.00016796103 0.00013456943)
(120.00001 -0.00012494325 0.00012804078)
(120.00001 -0.00013394342 0.00017206107)
(120.00001 -0.00010870074 0.00017713833)
(120.00004 -0.00010241575 0.00012668192)
(120.00003 -9.8218843e-05 0.00012839581)
(120.00003 -0.00018692041 0.00026296052)
(120.00006 -0.00027445025 0.00034434459)
(120.00007 -0.0003025577 0.00037855771)
(120.00003 -0.00021464949 0.00025297709)
(120.00006 -0.00036604015 0.00040830042)
(120.00007 -0.00030073021 0.00039776774)
(120.00012 -0.0003580818 0.0004405333)
(120.00023 -0.00061411132 0.00076258348)
(120.00036 -0.00037248311 0.00059175366)
(120.00031 -0.00031607877 0.00067883177)
(120.00032 -0.00034583329 0.00073807455)
(120.00032 -0.00023241109 0.00084494667)
(120.00015 -0.00012908144 0.00052504646)
(120.00008 -0.00022374635 0.00063952406)
(120.00014 -0.00016918949 0.00057244732)
(120.00013 -0.00013608272 0.00058798128)
(120.00005 -7.6682641e-05 0.00041809171)
(120.00003 -7.550268e-05 0.00038306842)
(120.0001 -9.1011401e-05 0.00059541087)
(120.00015 -0.00014932248 0.00065845364)
(120.00008 -0.00011737932 0.00054798637)
(120.00019 -0.00024397809 0.0010820059)
(120.00028 -0.00018934735 0.00078496948)
(120.0003 -8.369631e-05 0.00076834361)
(120.0003 2.9345558e-05 0.00076581838)
(120.0003 0.00014270477 0.00073009876)
(120.00031 0.00021013036 0.00072449872)
(120.0003 0.00031352487 0.00066662935)
(120.0006 0.00055606847 0.0011319316)
(120.0006 0.0005888693 0.0011298677)
(120.00068 0.00070418698 0.0010364185)
(120.00065 0.00083709038 0.00085302047)
(120.00065 0.00086454208 0.00082330916)
(120.00068 0.0010483159 0.00069025893)
(120.0006 0.0011409946 0.00057518521)
(120.00061 0.0011409848 0.00054176282)
(120.00064 0.0012864187 0.0003421446)
(120.00061 0.0012985136 0.00023047603)
(120.0006 0.0013456482 4.8773825e-05)
(120.0006 0.001347879 -0.000126841)
(120.00059 0.0013450634 -0.00030829596)
(120.00063 0.0013711029 -0.00039673483)
(120.00061 0.0011926172 -0.00058686376)
(120.00061 0.0011661923 -0.00059804156)
(120.00069 0.001068195 -0.00070684954)
(120.00067 0.00087706029 -0.00083555091)
(120.00068 0.0008469709 -0.00086095508)
(120.00071 0.00071631796 -0.001033222)
(120.00065 0.00059555965 -0.0011082655)
(120.00067 0.00055531075 -0.0010939121)
(120.00069 0.00033991609 -0.001240418)
(120.00066 0.00024113348 -0.00127546)
(120.00065 7.0398306e-05 -0.0013190546)
(120.00065 -8.1747553e-05 -0.0013195621)
(120.00066 -0.00025118661 -0.0012759028)
(120.0007 -0.00034739071 -0.0012402056)
(120.00067 -0.00055982013 -0.0010945949)
(120.0011 -0.00090549127 -0.0017687695)
(120.00107 -0.00097350394 -0.0017776332)
(120.00117 -0.001167286 -0.001688234)
(120.00114 -0.0013657569 -0.0014200894)
(120.00114 -0.0014054269 -0.001382956)
(120.00117 -0.0016728795 -0.0011843806)
(120.00106 -0.0017636771 -0.00099037859)
(120.00065 -0.0011000487 -0.00060847469)
(120.00032 -0.00061325671 -0.00033521133)
(120.00035 -0.00061036886 -0.00031881982)
(120.00036 -0.00067858493 -0.00019867781)
(120.00034 -0.00071947449 -0.00014894555)
(120.00035 -0.00076106163 -5.0799653e-05)
(120.00035 -0.00076121933 2.8901656e-05)
(120.00034 -0.00072055937 0.00012835976)
(120.00035 -0.00068030443 0.00018032779)
(120.00035 -0.00061254096 0.00030273352)
(120.00032 -0.00061585288 0.0003231783)
(120.00036 -0.00055878526 0.00039138181)
(120.00034 -0.00046237017 0.00045873662)
(120.00033 -0.00044715424 0.0004800522)
(120.00066 -0.00083038454 0.00087043955)
(120.00069 -0.0007010399 0.001061363)
(120.0006 -0.00059124102 0.0011597143)
(120.0006 -0.00057810612 0.0011862906)
(120.00062 -0.00038748676 0.0013645702)
(120.00058 -0.00029763122 0.0013381581)
(120.00059 -0.00011507995 0.0013408331)
(120.0006 6.1544355e-05 0.001338488)
(120.00061 0.00024381749 0.0012906922)
(120.00063 0.00035600168 0.0012769345)
(120.00104 0.00057116993 0.0020354349)
(120.001 0.00089470162 0.0017924617)
(120.00098 0.00096496644 0.0017882769)
(120.0011 0.0011624643 0.0016798857)
(120.00107 0.0013679815 0.0013986899)
(120.00107 0.0014150378 0.0013487592)
(120.0011 0.0016969966 0.0011433202)
(120.00099 0.0018039134 0.00094605843)
(120.00101 0.0018054072 0.00087488304)
(120.00104 0.0020491944 0.0005519074)
(120.00099 0.0020671849 0.00037744272)
(120.00097 0.0021266211 9.1697864e-05)
(120.00097 0.0021292461 -0.00017863432)
(120.00097 0.0021020229 -0.00046490885)
(120.00103 0.002107673 -0.00061999849)
(120.00101 0.0018419458 -0.00093045516)
(120.001 0.0018226172 -0.0009876444)
(120.00113 0.001711534 -0.0011755597)
(120.0011 0.0014247119 -0.0013744047)
(120.00111 0.0013766166 -0.0014170993)
(120.00115 0.0011709968 -0.0016849423)
(120.00105 0.00096878107 -0.0017767008)
(120.00108 0.00089628527 -0.0017687062)
(120.00112 0.00056398963 -0.0020116504)
(120.00106 0.00039812953 -0.0020406447)
(120.00104 0.00012009928 -0.0020955791)
(120.00104 -0.00013740457 -0.0020957337)
(120.00106 -0.00041369574 -0.0020405725)
(120.00113 -0.00057655371 -0.0020104563)
(120.00171 -0.00089784595 -0.0030590478)
(120.00167 -0.0013748692 -0.0026975358)
(120.00163 -0.0014928554 -0.0026885765)
(120.00178 -0.0017965221 -0.0025675675)
(120.00173 -0.0020883659 -0.0021796572)
(120.00173 -0.0021601744 -0.0021107936)
(120.00178 -0.0025472434 -0.0018188404)
(120.00162 -0.0026701287 -0.0015149861)
(120.00167 -0.0026818276 -0.0013980806)
(120.0017 -0.0030429905 -0.00092105256)
(120.00112 -0.0019986385 -0.00059411978)
(120.00069 -0.0012322192 -0.00035997084)
(120.00066 -0.0012687096 -0.00026319643)
(120.00064 -0.0013130353 -9.3285597e-05)
(120.00064 -0.0013138761 5.9447798e-05)
(120.00065 -0.0012707097 0.00023071296)
(120.00069 -0.0012358216 0.00033023471)
(120.00066 -0.0010898523 0.00054565912)
(120.00064 -0.0011042075 0.00058715165)
(120.0007 -0.0010288992 0.00070836149)
(120.00067 -0.00085645119 0.00083934504)
(120.00109 -0.0014099529 0.0013650977)
(120.00109 -0.0013662834 0.0014145553)
(120.00111 -0.0011666972 0.0017011563)
(120.00099 -0.00097752537 0.0018128809)
(120.001 -0.00091803192 0.001832621)
(120.00102 -0.00060694738 0.0020979073)
(120.00096 -0.00044998604 0.0020918053)
(120.00096 -0.00016227874 0.0021188076)
(120.00097 0.00010930193 0.0021158938)
(120.00098 0.00039586869 0.0020556424)
(120.0015 0.00061347876 0.003095229)
(120.00159 0.00088080825 0.0030681764)
(120.00155 0.0013584946 0.0027056316)
(120.00152 0.0014822545 0.0026857267)
(120.00168 0.0017908971 0.0025484201)
(120.00163 0.0020895948 0.0021473083)
(120.00163 0.0021693912 0.0020640907)
(120.00168 0.0025715198 0.0017656039)
(120.00152 0.002706724 0.0014572635)
(120.00156 0.0027233517 0.0013323391)
(120.0016 0.0030869785 0.00085535424)
(120.00151 0.0031112538 0.00058919359)
(120.00148 0.0031887341 0.00015401629)
(120.00148 0.0031914346 -0.00025476297)
(120.0015 0.003136442 -0.00068922844)
(120.00159 0.0031250437 -0.00093997563)
(120.00157 0.0027472611 -0.0014057368)
(120.00154 0.0027178795 -0.0015182959)
(120.00172 0.0025791497 -0.0018155573)
(120.00168 0.0021740654 -0.0021064344)
(120.00169 0.0020936612 -0.0021793242)
(120.00175 0.0017944442 -0.0025669243)
(120.0016 0.0014818773 -0.0026896144)
(120.00165 0.0013587347 -0.0026989634)
(120.00169 0.00087792821 -0.0030618295)
(120.0016 0.00061753975 -0.0030907576)
(120.00158 0.00018818173 -0.0031650711)
(120.00158 -0.00021339889 -0.0031649128)
(120.00161 -0.00064082513 -0.0030899668)
(120.00238 -0.0009520167 -0.0045124937)
(120.00252 -0.0013366432 -0.004472072)
(120.00248 -0.0020081865 -0.0039550366)
(120.00242 -0.0021954787 -0.0039156003)
(120.00263 -0.0026428109 -0.0037443453)
(120.00256 -0.0030570319 -0.0032009242)
(120.00256 -0.0031760324 -0.0030853141)
(120.00263 -0.0037184356 -0.0026709901)
(120.00241 -0.0038919909 -0.0022234833)
(120.00247 -0.0039345687 -0.0020376757)
(120.00251 -0.0044509968 -0.0013662488)
(120.00237 -0.0044943672 -0.00098104365)
(120.0016 -0.0030762901 -0.0006634289)
(120.00106 -0.0020304541 -0.00043065769)
(120.00103 -0.0020864785 -0.00015369472)
(120.00103 -0.0020873069 0.00010448378)
(120.00105 -0.0020329302 0.0003829361)
(120.00111 -0.0020045007 0.00054981862)
(120.00107 -0.0017624321 0.00088215434)
(120.00104 -0.0017701905 0.00095636264)
(120.00114 -0.0016780413 0.0011590809)
(120.00173 -0.0025567836 0.0017776948)
(120.00167 -0.002168874 0.0020774085)
(120.00166 -0.0020947223 0.0021595504)
(120.0017 -0.0018029746 0.0025644225)
(120.00152 -0.0015042224 0.0027040861)
(120.00155 -0.0013889075 0.0027340839)
(120.00157 -0.0009223812 0.0031111883)
(120.00148 -0.00066933464 0.0031220796)
(120.00146 -0.00023311637 0.0031767673)
(120.00147 0.00017724393 0.0031736679)
(120.00219 0.00027176429 0.0046098919)
(120.00224 0.00091462415 0.0045024152)
(120.00237 0.0013095625 0.0044631693)
(120.00233 0.0019859387 0.0039465736)
(120.00227 0.0021816413 0.0038967873)
(120.00249 0.0026356594 0.0037110698)
(120.00243 0.0030570845 0.0031552646)
(120.00243 0.0031840575 0.0030242676)
(120.0025 0.0037411337 0.0026031494)
(120.00228 0.0039241411 0.0021495852)
(120.00234 0.0039700238 0.0019524742)
(120.00238 0.0044879915 0.0012769628)
(120.00225 0.0045238682 0.00088359567)
(120.00221 0.0046302644 0.00024205084)
(120.00221 0.0046325421 -0.0003624044)
(120.00225 0.0045410068 -0.0010019159)
(120.00239 0.0045099663 -0.0013825696)
(120.00236 0.0039831264 -0.0020476627)
(120.00232 0.0039270693 -0.0022315534)
(120.00255 0.0037406615 -0.0026732617)
(120.0025 0.0031823438 -0.0030863384)
(120.00251 0.0030541513 -0.0032039894)
(120.00259 0.0026325797 -0.0037476122)
(120.00238 0.0021760941 -0.0039196917)
(120.00245 0.001982801 -0.003958837)
(120.0025 0.001306903 -0.0044770052)
(120.00237 0.00091852608 -0.0045142613)
(120.00233 0.00028199594 -0.0046185915)
(120.00233 -0.0003176364 -0.0046180602)
(120.00337 -0.00045769183 -0.0065350768)
(120.00344 -0.0013670921 -0.0063839609)
(120.00362 -0.0019183105 -0.006327004)
(120.00357 -0.0028366913 -0.0056099866)
(120.00349 -0.0031175037 -0.0055181071)
(120.00377 -0.003749677 -0.0052780969)
(120.00369 -0.0043194018 -0.0045358555)
(120.00369 -0.0045049087 -0.0043542559)
(120.00377 -0.0052458611 -0.003784407)
(120.00349 -0.0054885814 -0.0031520341)
(120.00356 -0.0055840464 -0.0028732225)
(120.00361 -0.0062999291 -0.0019550788)
(120.00342 -0.0063603202 -0.0014032977)
(120.00334 -0.0065126432 -0.00049396728)
(120.00232 -0.004601041 -0.00034645534)
(120.00157 -0.0031522007 -0.00023554946)
(120.00156 -0.0031531924 0.00016676028)
(120.00159 -0.0030794403 0.00059665583)
(120.00168 -0.0030513522 0.00085827685)
(120.00164 -0.0026896283 0.0013392493)
(120.00159 -0.0026800023 0.0014645535)
(120.00236 -0.0039062113 0.0021528111)
(120.00256 -0.0037334907 0.0026099463)
(120.00248 -0.0031894864 0.0030320885)
(120.00247 -0.0030703041 0.0031624696)
(120.00252 -0.0026562165 0.0037205465)
(120.00229 -0.0022127978 0.0039081845)
(120.00233 -0.0020255994 0.00396507)
(120.00236 -0.0013596057 0.0044909745)
(120.00223 -0.00097619776 0.0045214587)
(120.00218 -0.00033462838 0.0046126231)
(120.00318 -0.00047306525 0.0065100481)
(120.00319 0.00039969776 0.0065081443)
(120.00326 0.0013180784 0.0063565088)
(120.00344 0.0018811958 0.0062996194)
(120.00339 0.0028076141 0.0055846424)
(120.00331 0.0030992588 0.005482454)
(120.0036 0.0037402062 0.0052286979)
(120.00352 0.0043180228 0.0044748422)
(120.00352 0.0045114865 0.0042766045)
(120.00361 0.0052669306 0.00369921)
(120.00332 0.0055173207 0.0030589711)
(120.0034 0.005614909 0.00276566)
(120.00346 0.0063316555 0.0018403099)
(120.00328 0.006384538 0.0012792653)
(120.00322 0.0065350264 0.00036248902)
(120.00322 0.0065365063 -0.00050797677)
(120.00329 0.0063947388 -0.0014215529)
(120.00348 0.006340412 -0.0019713729)
(120.00344 0.0056180776 -0.0028864792)
(120.00338 0.005511264 -0.0031648456)
(120.00368 0.0052570715 -0.0037925971)
(120.00361 0.0045020915 -0.0043615579)
(120.00363 0.0043063162 -0.0045434044)
(120.00372 0.0037292557 -0.0052865749)
(120.00345 0.0030876012 -0.0055263729)
(120.00354 0.0027996898 -0.0056170931)
(120.0036 0.0018761262 -0.0063347563)
(120.00343 0.0013206333 -0.0063870393)
(120.00336 0.00040876811 -0.0065360601)
(120.00472 0.00057435155 -0.0089775382)
(120.00473 -0.00063977028 -0.0089759854)
(120.00483 -0.0019017036 -0.0087588643)
(120.00506 -0.0026633698 -0.0086771823)
(120.005 -0.0038753114 -0.0077132496)
(120.0049 -0.0042822494 -0.0075305511)
(120.00524 -0.0051453827 -0.0072033002)
(120.00514 -0.0059014365 -0.0062197152)
(120.00514 -0.0061819869 -0.0059436234)
(120.00523 -0.0071638628 -0.0051874195)
(120.00489 -0.0074942015 -0.0043240189)
(120.00499 -0.007680951 -0.0039197027)
(120.00504 -0.0086429359 -0.0027081556)
(120.0048 -0.0087284706 -0.0019459509)
(120.0047 -0.0089467808 -0.00068448365)
(120.00469 -0.008948861 0.00052966521)
(120.00334 -0.0065142752 0.00037292708)
(120.00231 -0.0046023021 0.00025383834)
(120.00235 -0.0044985424 0.00089096315)
(120.00248 -0.00446241 0.0012807441)
(120.00243 -0.0039455797 0.0019567895)
(120.00351 -0.0055989013 0.0027657181)
(120.00342 -0.005508097 0.0030570754)
(120.00368 -0.0052675964 0.0036994269)
(120.00358 -0.004523999 0.0042770824)
(120.00357 -0.0043403472 0.004475603)
(120.00363 -0.0037702253 0.0052302457)
(120.00334 -0.0031405415 0.0054859871)
(120.0034 -0.0028582118 0.0055938903)
(120.00344 -0.0019420847 0.0063149709)
(120.00325 -0.0013889928 0.0063687021)
(120.0046 -0.0019228992 0.0087191752)
(120.00451 -0.00065413296 0.0089302454)
(120.00451 0.00056699035 0.0089295844)
(120.0046 0.0018393051 0.0087134345)
(120.00483 0.0026155274 0.0086315237)
(120.00477 0.0038387166 0.0076709651)
(120.00468 0.0042589793 0.0074778568)
(120.00502 0.005133333 0.0071367433)
(120.00493 0.0058989103 0.0061417989)
(120.00494 0.0061876368 0.0058474265)
(120.00503 0.0071846448 0.005082359)
(120.0047 0.007521685 0.0042090394)
(120.0048 0.0077093446 0.0037867706)
(120.00486 0.00867222 0.0025649011)
(120.00464 0.0087493933 0.001791386)
(120.00455 0.0089644266 0.00052103793)
(120.00455 0.0089648121 -0.00069740714)
(120.00465 0.0087532899 -0.0019635114)
(120.00489 0.0086693016 -0.0027263691)
(120.00485 0.0077029929 -0.003937622)
(120.00477 0.0075056523 -0.0043424719)
(120.00512 0.0071639446 -0.0052023381)
(120.00505 0.0061691019 -0.0059582699)
(120.00506 0.0058768167 -0.0062332362)
(120.00517 0.0051131056 -0.0072184916)
(120.00485 0.004239743 -0.0075444535)
(120.00496 0.0038242393 -0.0077248075)
(120.00503 0.0026059444 -0.0086886893)
(120.00481 0.001839213 -0.0087637868)
(120.00653 0.0024673012 -0.011605181)
(120.00643 0.00077739905 -0.011902826)
(120.00643 -0.00086260892 -0.011900468)
(120.00655 -0.002548892 -0.01159758)
(120.0068 -0.003566064 -0.011488766)
(120.00674 -0.0050892757 -0.010246479)
(120.00664 -0.0056693752 -0.0099106297)
(120.00698 -0.0068097814 -0.0094836046)
(120.00688 -0.0077691838 -0.008233869)
(120.00688 -0.008188421 -0.0078197965)
(120.00697 -0.009435994 -0.0068601354)
(120.00662 -0.0098665169 -0.0057193302)
(120.00672 -0.010206796 -0.0051425493)
(120.00678 -0.0114461 -0.0036198755)
(120.00652 -0.011559094 -0.0026022235)
(120.0064 -0.011862959 -0.00091705333)
(120.00638 -0.011865587 0.00072228371)
(120.00648 -0.011569215 0.0024115318)
(120.00477 -0.0087360802 0.0017945768)
(120.0034 -0.0063659765 0.0012852383)
(120.00357 -0.0063151025 0.0018422311)
(120.00499 -0.0086627177 0.0025627952)
(120.00491 -0.0077004448 0.0037805732)
(120.0048 -0.0075202808 0.004200367)
(120.00512 -0.0071936026 0.0050744406)
(120.00501 -0.0062079189 0.0058387377)
(120.00499 -0.0059308884 0.0061344264)
(120.00507 -0.0051736468 0.0071287592)
(120.00471 -0.0043116253 0.0074724041)
(120.00479 -0.003902026 0.0076711267)
(120.00484 -0.0026896418 0.0086357955)
(120.00654 -0.0035961588 0.011419436)
(120.00629 -0.0025706244 0.011533877)
(120.00617 -0.00087631878 0.011833793)
(120.00617 0.00077233304 0.011834843)
(120.00628 0.002471459 0.011534764)
(120.00653 0.0035068085 0.01142591)
(120.00647 0.0050451779 0.010187796)
(120.00637 0.0056413657 0.0098414531)
(120.00672 0.0067960819 0.0093999071)
(120.00663 0.0077672217 0.0081380577)
(120.00664 0.0081948446 0.0077034402)
(120.00674 0.009459112 0.0067330623)
(120.00639 0.009895621 0.0055797887)
(120.0065 0.010235649 0.0049812251)
(120.00657 0.011476752 0.0034446656)
(120.00633 0.011580081 0.0024128056)
(120.00623 0.011879198 0.00071606941)
(120.00623 0.011878175 -0.00092950051)