/*--------------------------------*- C++ -*----------------------------------*\
  =========                 |
  \\      /  F ield         | OpenFOAM: The Open Source CFD Toolbox
   \\    /   O peration     | Website:  https://openfoam.org
    \\  /    A nd           | Version:  7
     \\/     M anipulation  |
\*---------------------------------------------------------------------------*/
FoamFile
{
    version     2.0;
    format      ascii;
    class       volScalarField;
    location    "10";
    object      p;
}
// * * * * * * * * * * * * * * * * * * * * * * * * * * * * * * * * * * * * * //

dimensions      [1 -1 -2 0 0 0 0];

internalField   nonuniform List<scalar> 
25278
(
101309.45
101311.88
101312.28
101312.26
101317.38
101311.76
101307.67
101309.43
101307.81
101300.1
101301.87
101306.91
101309.87
101314.88
101326.26
101312.24
101311.87
101316.89
101316.77
101317.84
101313.43
101314.31
101311.32
101304.44
101301.42
101304.27
101311.24
101312.03
101318.85
101311.33
101309.05
101315.39
101313.56
101312.7
101305.84
101325.49
101318.49
101310.53
101319.12
101309.42
101312.5
101302.36
101309.36
101309.17
101309.09
101301.12
101304.44
101297.51
101298.08
101308.59
101307.62
101316.6
101312.66
101316.42
101327.28
101314.25
101306.18
101321.49
101305.74
101314.25
101308.89
101306.86
101306.34
101310.77
101329.24
101325.8
101306.54
101304.89
101305.87
101310.15
101339.19
101329.79
101335.78
101323.97
101331.56
101313.67
101305.83
101311.21
101314.21
101316.86
101322.82
101326.24
101316.97
101317.06
101315.41
101321.52
101330.04
101339.63
101332.5
101340.99
101332.61
101324.07
101332.64
101335.01
101334.82
101324.02
101325.09
101332.81
101324.99
101320.12
101324.98
101332.5
101330.53
101320.28
101329.89
101334.71
101333.1
101339.22
101338.53
101340.06
101337.87
101329.42
101342.24
101341.83
101338.14
101334.97
101337.7
101326.49
101332.68
101332.79
101317.11
101315.39
101317.37
101332.88
101335.32
101338.79
101340.16
101337.91
101330.06
101321.51
101322.79
101316.83
101317.04
101326.28
101332.68
101339.8
101333.32
101329.5
101342.37
101339.67
101338.77
101342.03
101338.01
101326.63
101330.31
101334.99
101325.43
101324.28
101335.32
101324.42
101326.3
101341.13
101332.79
101333.04
101316.93
101325.29
101320.76
101331.53
101335.81
101343.14
101343.09
101342.63
101341.63
101334.52
101329.32
101334.28
101332.09
101325.77
101336.94
101341.28
101337.83
101347.75
101351.73
101342.22
101338.63
101355.84
101352
101352.34
101356.2
101339.03
101344.01
101353.02
101348.82
101339.04
101333.22
101325.44
101320.71
101330.29
101336.2
101339.11
101342.84
101333.04
101316.92
101335.04
101326.95
101332.89
101338.17
101343.14
101332.94
101332.98
101341.67
101336.15
101331.9
101330.41
101325.72
101322.14
101312.77
101318.86
101315.36
101308.82
101325.69
101313.74
101312.74
101302.37
101318.49
101310.43
101319.25
101309.67
101309.57
101309.28
101297.86
101296.92
101304.71
101304.11
101296.87
101283.95
101299.74
101290.61
101300.54
101315.52
101304.6
101281.49
101296.13
101295.58
101308.79
101312.26
101297.6
101297.12
101313.51
101318.07
101308.57
101327.84
101316.9
101314.89
101309.53
101314.49
101306.42
101322.06
101306.5
101307.98
101307.81
101311.3
101307.63
101316.87
101313.24
101330.23
101311.3
101307.06
101326.77
101307.03
101306.61
101303.79
101304.99
101305.29
101307.84
101289.72
101296.08
101283.98
101304.18
101309.61
101295.37
101279.06
101284.1
101288.5
101289.35
101281.66
101293.23
101264.95
101273.28
101283.88
101272.05
101259.1
101279.89
101266.32
101275.53
101266
101273.68
101296.63
101285.68
101308.79
101278.27
101276.48
101284.45
101297.44
101304.99
101297.1
101315.66
101305.07
101296.38
101296.34
101281.9
101297.96
101310.29
101301.06
101289.92
101324
101324.88
101342.24
101319.51
101312.76
101299.49
101317.52
101301.01
101315.77
101317.15
101311.44
101299.75
101312.98
101331.9
101325.99
101317.8
101301.43
101324.41
101320.13
101316.63
101317.89
101324.93
101344.43
101330.22
101324.69
101283.54
101310.22
101343.09
101324.28
101340.54
101314
101335.48
101316.59
101293.93
101297.4
101308.17
101331.04
101305.65
101315.08
101293.44
101298.6
101299.22
101261.7
101296.4
101290.2
101271.18
101311.11
101288.81
101306.91
101289.31
101277.83
101271.84
101276.7
101245.87
101279.61
101275.97
101285.01
101288.15
101306.9
101281
101277.73
101306.38
101299.58
101310.58
101290.03
101262.08
101297.72
101290.94
101324.78
101325.53
101343.14
101317.49
101294.52
101298.49
101308.85
101331.84
101306.55
101316.34
101336.75
101299.55
101276.92
101315.25
101289.41
101286.84
101294.86
101288.15
101290.49
101307.6
101289.17
101311.57
101271.58
101278.99
101273.72
101277.77
101247.07
101280.99
101279.6
101264.65
101256.35
101243.42
101245.21
101228.25
101265.17
101288.65
101297.57
101252.52
101266.31
101270.51
101261.03
101272.75
101265.89
101262.09
101285.73
101242.08
101244.75
101253.6
101248.92
101241.56
101244.77
101249.22
101257.47
101271.02
101265.5
101254.21
101244.04
101223.7
101216.57
101214.25
101231.43
101236.82
101247.02
101250.44
101252.58
101274.79
101283.11
101260.39
101270.84
101279.26
101299.75
101319.4
101317.92
101348.7
101323.02
101336.87
101331.09
101315.93
101318.38
101316.68
101321.63
101331.22
101295.07
101335.45
101353.74
101335.14
101316.52
101310.11
101320.42
101317.15
101304.18
101272.79
101300.21
101358.95
101307.22
101341.28
101332.92
101338.69
101322.45
101323.13
101317.55
101317.02
101298.25
101351.84
101336.94
101282.07
101304.26
101304.15
101317.92
101317.95
101331.83
101320.32
101333.29
101311.76
101330.12
101310.41
101335.22
101308.24
101341.76
101278.73
101269.2
101325.33
101273.53
101276.42
101282.94
101276.27
101282.59
101271.8
101281
101246.38
101254.85
101262
101277.31
101286.43
101291.43
101290.19
101317.44
101289.21
101296.65
101312.21
101304.07
101284.78
101283.92
101303.77
101307.05
101346.69
101321.59
101319.27
101313.18
101316.38
101314.76
101293.56
101304.94
101312.7
101319.95
101318.67
101336.39
101295.76
101311.13
101309.73
101311.5
101312.81
101318.23
101352.54
101334.69
101333.73
101271.12
101315.47
101308.45
101299.75
101296.67
101297.27
101356.12
101348.68
101278.71
101294.04
101303.56
101241.33
101319.6
101265.71
101326.91
101294.57
101351.64
101301.21
101304.75
101295.96
101280.86
101285.4
101291.72
101300.47
101294.34
101283.48
101290.59
101284.74
101274.04
101266.24
101273.72
101260.54
101281.8
101289.63
101277.07
101268.95
101249.96
101265.41
101273.95
101295.07
101285.56
101308.47
101278.45
101265.97
101289.21
101297.67
101273.25
101260.68
101252.8
101266.02
101269.64
101263.8
101269.95
101245.06
101228.59
101249.07
101245.44
101243.42
101286.75
101263.8
101266.93
101253.93
101250.09
101242.1
101245.33
101214.64
101216.17
101223.01
101256.99
101253.05
101241.93
101253.73
101242.14
101243.37
101245.5
101221.86
101217.38
101224.22
101233.27
101246.26
101242.54
101240.98
101236.27
101284.21
101268.39
101274.61
101272.38
101295.47
101267.68
101271.94
101268.73
101295.82
101240.05
101256.99
101252.04
101263.94
101268.79
101273.75
101276.85
101278.62
101284.51
101296.2
101297.67
101316.23
101298.06
101332.63
101298.37
101314.82
101329.74
101316.85
101290.6
101293.1
101284.67
101300.09
101273.87
101298.01
101276.74
101271.13
101268.41
101283.08
101310.35
101306.44
101346.72
101338.29
101293.18
101287.84
101292.07
101304.9
101292.85
101317.77
101326.22
101289.98
101284.89
101269.38
101276.21
101278.89
101274.65
101304.31
101332.1
101281.65
101274.83
101306.51
101251.71
101299.29
101271.04
101260.07
101251.71
101267.9
101271.51
101284.49
101267.37
101274.43
101260.95
101254.84
101248.84
101264.9
101284.61
101283.71
101278.45
101297.51
101264.32
101262.41
101257.05
101278.01
101259.71
101268.74
101263.55
101270.96
101323.75
101287
101262.83
101275.57
101327.69
101299.86
101351.92
101302.83
101309.19
101287.98
101281.94
101276.76
101279.55
101258.56
101279.97
101271.09
101264.7
101273.83
101254.7
101236.63
101241.18
101242.75
101234.84
101255.59
101248.43
101274.53
101282.16
101255.59
101271.58
101262.41
101268.54
101258.74
101252.01
101244.76
101251.75
101247.61
101270.81
101245.82
101240.76
101234.98
101252.09
101232.39
101227.49
101231.85
101239.41
101247.28
101264.03
101280.85
101262.6
101243.08
101240.11
101252.2
101258.75
101255.03
101258.64
101266.56
101255.18
101246.6
101232.37
101239.97
101252.47
101245.48
101237.36
101222.08
101241.5
101231.32
101246.15
101224.52
101238.26
101234.07
101255.61
101260.47
101272.95
101306.93
101301.27
101292.52
101345.86
101291.58
101285.12
101287.47
101277.95
101275.24
101298.81
101261.01
101257.39
101257.24
101265.58
101303.51
101296.29
101294.51
101351.12
101293.01
101285.2
101285.05
101275.46
101275.49
101301.92
101262.78
101257.32
101252.61
101252.62
101251.58
101275.35
101278.56
101284.89
101282.38
101322.34
101259.15
101264.19
101267.83
101258.13
101253.04
101227.37
101227.55
101254
101276.89
101282.9
101283.08
101326.31
101261.33
101264.27
101264.36
101256.29
101256.07
101260.94
101262.88
101304.43
101232.65
101273.5
101252.87
101241.46
101225.66
101251.75
101220.43
101236.2
101246.02
101254.39
101243.45
101249.65
101242.25
101241.86
101237.57
101247.82
101257.97
101252.76
101271.19
101285.41
101276.61
101265.39
101244.18
101233.91
101227.71
101235.23
101240.99
101242.5
101245.14
101225.51
101216.48
101232.31
101236.04
101249.4
101245.92
101237.19
101223.22
101220.43
101215.08
101229.02
101223.35
101227.03
101235.4
101246.56
101248.23
101244.02
101235.5
101239.42
101225.39
101233.1
101229.48
101231.21
101223
101213.1
101207.3
101209.62
101218.2
101211.02
101218.44
101213.55
101208.39
101222.85
101223.83
101229.21
101226.47
101219.8
101217.88
101213.08
101218.08
101220.83
101215.36
101222.06
101224.88
101231.27
101245.18
101235.3
101220.58
101206.09
101220.87
101235.04
101220.44
101230.4
101214.43
101242.73
101227.85
101240.64
101259.02
101265.78
101262.4
101329.23
101286.75
101248.11
101226.63
101246.88
101278.45
101209.78
101243.47
101314.38
101237.43
101222.78
101278.66
101177.11
101190.09
101210.91
101195.65
101215.53
101241.05
101216.28
101232.25
101213.53
101189.51
101157.08
101190.46
101156.04
101190.94
101164.51
101199.75
101221.53
101203.08
101173.43
101206.36
101195.88
101222.65
101233.53
101229.32
101218.1
101190.72
101210.52
101222.22
101212.62
101214.24
101203.13
101216.29
101208.27
101218.61
101221.66
101215.28
101215.17
101216.67
101202.36
101210.69
101199.94
101204.57
101180.45
101193.69
101195.1
101213.93
101158.33
101151.59
101104.18
101112.65
101177.24
101180.62
101199.2
101173.42
101203.07
101223.32
101209.28
101189.59
101166.36
101194.41
101207.78
101179.44
101139.36
101124.65
101156.39
101080.56
101130.78
101096.58
101157.3
101202.21
101230.48
101237.77
101251.73
101271.58
101260.24
101238.7
101234.62
101246.76
101250
101244.75
101240.39
101226.24
101193.22
101211.37
101219.82
101187.39
101212.28
101249.21
101240.84
101198.29
101155.5
101178.42
101221.29
101238.37
101256.64
101323.25
101309.97
101227.4
101231.65
101208.76
101209.76
101241.29
101194.59
101189.49
101226.75
101253.61
101276.92
101278.72
101276.61
101302.26
101277.24
101282.03
101295.94
101297.53
101313.37
101316.78
101316.75
101325.04
101332.71
101324.96
101334.33
101332.08
101325.73
101329.36
101334.62
101336.92
101341.34
101338.03
101332.62
101330.48
101320.04
101324.83
101316.76
101320.07
101329.64
101335.04
101341.94
101342.3
101351.91
101348.18
101352.66
101356.13
101338.82
101343.19
101337.91
101342.28
101338.44
101334.68
101316.78
101332.7
101335
101339.18
101349.19
101353.05
101356.58
101339.34
101343.64
101343.2
101344.11
101353.24
101342.89
101339.03
101336.04
101330.09
101316.84
101333.01
101326.86
101332.64
101337.7
101342.63
101332.52
101332.51
101341.43
101336
101331.84
101312.61
101316.53
101307.55
101308.51
101317.75
101316.38
101321.28
101329.2
101325.68
101306.5
101310.9
101306.64
101305
101305.84
101310.3
101305.78
101307.18
101306.23
101314.25
101327.06
101314.26
101309.09
101307.39
101312.2
101298.04
101285.54
101280.9
101273.96
101264.88
101272
101280.69
101288.53
101309.41
101304.74
101301.43
101303.38
101280.73
101260.45
101255.49
101237.65
101243.6
101252.48
101269.85
101277.75
101285.26
101304.17
101304.33
101285.18
101290.08
101297.01
101290.15
101282.52
101262.3
101275.37
101267.41
101267.32
101276.38
101264.12
101268.17
101263.58
101262.83
101265.25
101243.96
101241.17
101236.45
101235.63
101246.99
101247.28
101242.69
101242.39
101230.14
101231.48
101197.93
101197.09
101212.35
101211.4
101146.69
101156.22
101164.64
101126.2
101033.95
101099.79
101142.19
101085.63
101120.59
101066.25
101107.91
101162.14
101204.49
101197.98
101218.24
101310.91
101285.09
101208.45
101165.26
101181.87
101216.01
101166.03
101189.38
101162.27
101208.9
101232.76
101232.22
101255.91
101316.83
101233.17
101296.21
101206.31
101155.51
101173.48
101251.31
101272.21
101246.5
101299.29
101248.23
101310.45
101265.72
101328.79
101280.57
101331.63
101302.41
101274.56
101285.18
101287.73
101298.83
101299.67
101316.75
101300.63
101334.81
101300.09
101296.11
101288.31
101292.55
101294.78
101278.24
101266.04
101282.85
101278
101289.57
101294.51
101320.03
101332.34
101307.12
101277.98
101283.78
101282.83
101295.31
101296.13
101309.66
101350.22
101308.41
101296.59
101341.98
101296.65
101292.82
101284.77
101288.74
101314.39
101302.66
101276.06
101275.19
101273.36
101262.74
101259.85
101273.34
101274.21
101286.98
101285.38
101281.8
101287.33
101280.96
101305.12
101305.19
101295.51
101297.11
101311.71
101312.23
101309.42
101307.64
101314.81
101311.19
101314.16
101313.47
101316.9
101307.67
101326.79
101313.35
101307.16
101306.8
101307.07
101311.52
101330.4
101311.65
101308.36
101308.67
101306.7
101308.73
101318.13
101317.14
101322.26
101306.94
101315.38
101328.1
101314.79
101310.24
101308.85
101306.35
101305.85
101304.12
101280.01
101279.5
101256.22
101259.78
101278.45
101268.19
101240.35
101248.97
101257.92
101248.94
101256.82
101273.75
101266.36
101255.16
101246.92
101241.36
101247.26
101270.24
101245.15
101253.02
101236.87
101243.26
101252.15
101267.16
101284.91
101264.49
101259.93
101267.32
101268.67
101302.12
101313.01
101305.83
101356.91
101304.75
101293.34
101291.5
101297.16
101350.9
101296.55
101329.67
101334.71
101323.18
101331.04
101292.3
101268.65
101277.78
101291.48
101286.9
101291.64
101277.63
101271.07
101252.89
101268.13
101269.94
101269.83
101279.11
101267.26
101305.19
101283.58
101285.55
101289.41
101292.76
101277.86
101283.41
101267.05
101274.98
101290.89
101287.16
101267.46
101269.75
101253.18
101272.15
101267.95
101248.67
101251.37
101270.44
101268.86
101267.87
101257.85
101259.94
101278.35
101257.32
101246.55
101247.03
101238
101237.64
101233.39
101231.18
101224.86
101232.96
101237.4
101244.74
101231.06
101236.66
101244.41
101258.24
101270.31
101257.61
101253.5
101264.64
101251.7
101239.31
101231.23
101243.49
101240.11
101249.03
101263.62
101248.57
101231.64
101219.84
101242
101257.84
101239.93
101217.14
101234.6
101244.97
101251.49
101260.38
101281.72
101270.78
101250.11
101241.33
101255.48
101275.32
101280.31
101265.76
101255.53
101289.99
101253
101265.25
101248.8
101230.79
101212.77
101249.71
101320.67
101280.12
101260.89
101278.46
101272.58
101252.32
101240.36
101286.42
101232.7
101244.56
101217.52
101200.07
101185.12
101229.37
101322.94
101267.76
101252.55
101272.81
101268.57
101246.88
101238.93
101297.84
101222.83
101232.01
101197.49
101182.01
101180.19
101207.31
101319.37
101255.25
101249.1
101269.43
101275.83
101292.08
101291.93
101301.63
101357.61
101300.29
101298.8
101357.18
101299.91
101292.36
101284.99
101284.52
101310.84
101273.01
101270.28
101309.43
101309.84
101300.23
101357.34
101322.87
101338.82
101333.15
101298.48
101317.79
101319.59
101324.31
101341.81
101308.05
101359.99
101352.15
101337.32
101282.48
101305.99
101319.2
101321.09
101308.32
101301.45
101274.56
101336.88
101296.18
101331.92
101331.69
101337.65
101324.53
101323.13
101319.31
101320.97
101317.14
101355.29
101336.26
101318.43
101315.13
101309.35
101321.13
101324.3
101317.66
101337.48
101319.19
101340.21
101325.53
101335.86
101330.23
101329.49
101270.76
101274.98
101335.34
101334.96
101292.65
101276.41
101270.53
101269.95
101289.71
101290.49
101271.95
101269.66
101260.29
101259.24
101273.57
101267.22
101243.71
101244.26
101246.92
101238.77
101247.75
101242.87
101231.79
101228.39
101229.86
101234.53
101236.19
101237.25
101239.56
101233.05
101210.28
101222.57
101214.52
101224.86
101214.86
101224.32
101229.75
101236.87
101228.06
101242.41
101232.67
101217.7
101228.82
101221.4
101215.81
101223.77
101220.41
101212.22
101200.53
101211.85
101213.23
101214.42
101229.3
101237.81
101263.09
101244
101220.7
101199.8
101223.51
101247.65
101259.75
101254.07
101273.82
101249.18
101230.17
101212.61
101237.59
101264.9
101240.8
101217.4
101237.67
101204.73
101173.31
101205.35
101221.95
101199.68
101229.33
101235.45
101209.75
101178.79
101211.95
101266.61
101304.86
101367.17
101342.28
101324.76
101290.88
101272.31
101294.05
101325.54
101251.23
101291.29
101365.8
101281.78
101273.21
101345
101251.76
101229.62
101251.24
101219.65
101255.7
101288.85
101368.1
101341.98
101292.89
101254.4
101347.9
101284.33
101239.55
101191.97
101292.6
101340.04
101291.89
101185.92
101152.41
101232.84
101231.81
101291.25
101251.14
101344.58
101278.34
101348.46
101295.68
101336.3
101318.85
101320.43
101339.28
101305.21
101313.48
101311.43
101310.17
101312.45
101356.24
101297.13
101297.26
101294.46
101297.62
101234.21
101317.44
101261.79
101326.56
101293.21
101351
101294.72
101297.53
101352.19
101295.79
101286.95
101285.89
101284.17
101285.74
101328.4
101268.04
101268.24
101266
101256.44
101231.08
101255.28
101258.9
101263.34
101268.03
101305.12
101278.32
101261.14
101263.54
101264.2
101300.84
101294.02
101346.21
101352.64
101303.32
101290.95
101288.02
101293.05
101301.91
101330.11
101324.13
101286.76
101290.08
101274.88
101270.33
101262.06
101279.45
101266.59
101320.09
101294.83
101338.81
101319.77
101329.72
101330.31
101335.63
101321.88
101316.82
101314.01
101293.69
101314.81
101352.21
101333.53
101334.5
101270.64
101300.03
101313.77
101318.54
101307.74
101314.96
101282.66
101324.05
101300.8
101323.64
101309.31
101318.78
101308.86
101314.2
101304.39
101300.94
101291.68
101297.41
101301.43
101304.84
101311.19
101311.88
101318.62
101315.19
101313.42
101325.09
101305.77
101318.27
101310.4
101309.35
101302.39
101312.3
101330.94
101313.08
101312.55
101319.44
101315.64
101299.28
101316.91
101325.45
101321.78
101312.55
101325.3
101329.75
101343.3
101310.44
101316.61
101308.45
101315.56
101323.47
101300.04
101316.7
101298.71
101311.79
101330.63
101322.91
101318.1
101314.29
101312.5
101298.04
101300.66
101310
101341.56
101309.15
101308.91
101296.49
101304.99
101297.16
101315.34
101297.98
101282.38
101296.63
101285.34
101290.77
101283.8
101294.37
101284.8
101300.38
101274.64
101267.02
101274.51
101269.06
101277.63
101253.08
101261.33
101241.43
101249.49
101235.89
101239.34
101233.91
101232.64
101235.23
101230.06
101228.6
101240.13
101226.74
101230.18
101227.36
101224.71
101227.63
101233.88
101231.97
101229.89
101230.5
101229.23
101226.18
101220.33
101223.52
101220.96
101218.96
101186.6
101192.28
101194.42
101186.71
101193.74
101196.59
101226.51
101231.06
101228.39
101197.17
101207.92
101123.66
101102.95
101108.25
101138.45
101141.87
101107.88
101003.27
101071.84
101064.58
101007.44
100998.49
100984.1
101097.95
101115.7
101105.53
100995.54
101010.69
101081.39
101149.05
101140.05
101206.47
101239.23
101243.51
101258.32
101261.24
101322.18
101244.81
101239.2
101235.89
101213.19
101151.09
101196.26
101205.87
101236.18
101258.59
101281.2
101260.18
101262.93
101282.18
101279.66
101283.19
101309.58
101277.02
101267.61
101266.42
101261.21
101241.66
101249.25
101269.13
101286.44
101286.19
101283.93
101300.1
101295.14
101308.29
101347.18
101306.81
101295.52
101291.51
101290.27
101295.02
101328.36
101290.54
101282.91
101276.7
101270.98
101253.73
101268.21
101269.81
101268.35
101286.81
101312.74
101288.83
101275.24
101276.86
101277.04
101302.07
101299.62
101332.89
101346.61
101317.19
101299.89
101296.04
101299.98
101315.86
101330.77
101318.6
101294.84
101299.39
101288.68
101284.42
101277.62
101306.21
101333.54
101309.22
101327.24
101308.32
101327.42
101313.17
101264.22
101269.96
101249.75
101242.43
101231.92
101262.39
101316.69
101290.04
101307.39
101216.51
101211.58
101162.94
101175.37
101193.61
101171.84
101126.07
101190.27
101220.65
101249.24
101254.29
101218.09
101231.97
101263.49
101240.08
101227.6
101184.54
101165.25
101105.82
101081.67
101064.46
101085.51
101099.98
101136.71
101079.96
101149.16
101116.73
101178.32
101176.66
101167.73
101090.47
101107.54
101002.64
101026.61
100945.37
101020.73
100945.94
101029.74
100977.4
101025.1
101031.54
101069.25
101164.13
101192.62
101176.17
101197.67
101175.99
101203.7
101199.48
101213.04
101192.26
101213.93
101198.21
101178.38
101192.15
101201.88
101173.6
101194.97
101203.79
101213.06
101195.79
101216.71
101189.24
101150.97
101185.82
101171.24
101152.21
101193.67
101188.32
101119.52
101141.07
101078.35
101084.76
101164.75
101188.53
101159.37
101138.58
101029.95
101092.19
101140.15
101174.89
101130.47
101175.38
101170.49
101216.11
101241.47
101265.64
101235.12
101209.81
101189.57
101222.34
101257.35
101229.04
101193.93
101129.77
101166.48
101120.07
101070.51
101134.99
101117.03
101188.22
101229.57
101257.85
101220.09
101185.13
101182.29
101218.41
101253.17
101245
101241.78
101236.87
101241.67
101260.5
101245.43
101223.3
101216.5
101242.2
101258.28
101262.58
101246.52
101245.47
101250.09
101246.91
101271.23
101271.78
101256.93
101271.78
101271.71
101260.96
101235.66
101240.77
101235.58
101229.45
101238.11
101239.9
101237.92
101232.74
101230.85
101234.19
101230.65
101227
101231.3
101209.56
101199.21
101204.97
101217.15
101225.24
101229.65
101229.65
101203.9
101216.06
101266.02
101277.96
101292.23
101296.78
101301.68
101303.78
101307.61
101303.92
101299.61
101302.3
101299.65
101291.52
101294.86
101283.84
101277.15
101283.68
101284.74
101287.76
101279.97
101286.02
101263.28
101257.5
101264.18
101273.97
101276.96
101262.61
101264.39
101262.53
101273.54
101286.53
101281.09
101273.47
101269.99
101282.66
101292.46
101299.34
101286.77
101290.05
101293.66
101299.24
101295.25
101287.08
101283.5
101289.84
101284.6
101275.56
101274.7
101280.81
101287.76
101280.88
101286.18
101287.95
101290.22
101296.35
101294.72
101293.03
101294.37
101289.53
101287.86
101294.17
101292.84
101283.41
101277
101285.9
101278.35
101278.61
101261.61
101269.51
101261.98
101266.89
101272.37
101284.81
101295.62
101289.15
101286.15
101285.18
101287.71
101279.6
101276.31
101266.75
101259.29
101265.5
101265.95
101268.33
101276.44
101281.94
101288.47
101284
101273.76
101276.15
101265.09
101259.17
101260.45
101256.41
101275.02
101275.96
101258.8
101255.78
101246.99
101236.72
101240.83
101247.2
101248.9
101253.13
101266.33
101273.01
101261.33
101252.67
101247.41
101237.14
101236.64
101232.21
101217
101236.58
101239.5
101240.67
101240
101230.51
101204.95
101217.44
101232.91
101237.58
101243.71
101248.43
101244.25
101230.91
101211.38
101211.82
101216.45
101230.58
101258.34
101254.91
101273.3
101273.81
101238.22
101234.73
101244.98
101253.32
101255.75
101244.22
101244.94
101233.73
101263.37
101269.74
101243.5
101247.75
101256.98
101249.22
101251.93
101250.36
101274.54
101277.58
101270.42
101250.75
101239.76
101257.06
101264.97
101240.1
101245.69
101254.06
101251.02
101251.08
101259.94
101256.49
101230.18
101252.76
101247.77
101251.04
101250.55
101266.53
101260.29
101253.84
101249.84
101241.07
101237.58
101240.57
101233.57
101237.52
101235.31
101238.49
101237.91
101230.46
101215.5
101208.42
101227.14
101238.57
101243.19
101239.72
101233.63
101231.8
101209.57
101215.12
101210.67
101206.21
101216.11
101228.64
101224.86
101224.05
101197.37
101216.81
101230.94
101238.42
101235.51
101243.33
101244.2
101249.99
101252.74
101255.62
101256.2
101264
101270.77
101265.75
101260.34
101255.42
101245.74
101242.27
101232.36
101255.26
101269.74
101266.73
101274.41
101272.98
101264.21
101265.25
101256.45
101266.04
101270.27
101269.57
101261.12
101253.59
101250.45
101258.38
101257.01
101244.96
101225.62
101225.3
101225.4
101241.89
101242.21
101243.86
101259.54
101269.58
101263.41
101264.09
101267.31
101265.58
101263.35
101267.38
101282.35
101284.37
101293.21
101299.93
101302.68
101294.4
101291.37
101285.46
101287.97
101291.6
101290.34
101283.71
101278.93
101278.15
101286.88
101284.71
101281.28
101272.77
101281.86
101278.2
101277.25
101271.45
101271.99
101278.77
101278.25
101274.36
101267.71
101274.09
101273.83
101263.9
101260.12
101275.76
101274.71
101277.73
101281.99
101282.7
101284.8
101280.11
101282.07
101284.88
101284.84
101278.01
101278.91
101272.88
101270.27
101269.52
101278.3
101278.83
101274.06
101259.38
101257.07
101253.82
101257.64
101269.91
101279.37
101273.64
101269.14
101272.62
101273.62
101272.41
101266.47
101269.61
101260.54
101262.64
101266.84
101258.23
101258.07
101255.73
101250.91
101245.44
101239.68
101220.76
101242.83
101246.26
101247.97
101248.46
101246.26
101259.02
101244.74
101231.66
101240.74
101261
101259.24
101243.32
101242.71
101237.57
101237.9
101234.52
101240.36
101245.47
101233.56
101233.85
101228.72
101220.61
101229.86
101228.71
101231.29
101235.4
101238.73
101243.11
101241.79
101241.31
101241.15
101235.07
101235.59
101226.81
101231.22
101234.01
101239.85
101245.98
101242.09
101242.29
101239.33
101246.08
101234.13
101218.05
101235.72
101235.89
101237.34
101240.52
101234.96
101237.34
101231.25
101237.31
101234.06
101226.32
101219.43
101232.26
101231.44
101224.92
101226.21
101208.26
101218.94
101230.49
101235.74
101232.58
101222.2
101231.58
101265.23
101271.15
101279.2
101259.89
101261
101273.79
101255.1
101250.37
101273.2
101270.55
101255.01
101259.96
101249.33
101256.59
101230.43
101225.5
101227.26
101236.17
101239.42
101226.07
101225.4
101236.42
101236.78
101250.97
101259.51
101252.9
101250.17
101245.34
101245.27
101250.68
101253.17
101249.82
101248.49
101253.75
101237.72
101253.25
101255.19
101260.6
101259.14
101259.89
101249.46
101236.51
101236.89
101221.02
101224.99
101232.7
101205.77
101216.9
101198.14
101205.97
101224.67
101226.61
101230.51
101225.48
101226.73
101216.54
101225.09
101237.36
101227.56
101232.11
101244.33
101234.9
101246.36
101230.35
101206.62
101234.46
101227.95
101249.49
101262.72
101244.49
101258.44
101245.01
101237.66
101243.46
101249.3
101256.72
101246.94
101221.64
101249.97
101266.71
101247.89
101224.5
101250.49
101241.62
101258.45
101251.02
101256.54
101265.25
101270.67
101265.39
101271.35
101255.28
101263.3
101244.38
101261.63
101240.1
101258.73
101265.41
101260.61
101254.84
101255.8
101254.11
101256.44
101256.73
101256.18
101264.46
101261.54
101259.54
101259.77
101247.3
101254.5
101254.63
101259.9
101261.66
101259.61
101258.37
101253.25
101248.22
101242.49
101243.73
101245.45
101240.68
101233.49
101228.7
101225.65
101226.74
101232.18
101229.51
101222.4
101219.25
101224.43
101225.4
101226.33
101236.37
101245.65
101230.43
101205.5
101194.19
101173.98
101171.49
101058.25
101040
101047.33
101167.57
101127.42
101153.3
101133.22
101167.86
101184.48
101196.13
101159.24
101196.24
101156.35
101117.59
101165.88
101127.06
101174.97
101192.11
101314.71
101221.33
101166.68
101218.07
101149.44
101187.96
101159.01
101109.61
101112.31
101182.59
101286.03
101111.77
101150.94
101113.73
101166.33
101254.55
101117.34
101184.67
101063.47
101002.54
101060.99
100997.39
101055.57
101121.36
101168.73
101114.23
101045.75
100977.45
101060.75
101118.49
101072.42
101120.26
101065.83
100987.31
101064.93
101130.45
101058.81
100999.09
100914.13
100998.66
100907.46
100822.06
100916.64
100853.45
100941.89
101013.62
101095.47
101142.3
101113.25
101037.4
101080.68
101168.48
101081.88
101110.39
101011.47
101100.42
101083.67
100983.82
101076.65
101133.89
101179.53
101154.42
101249.27
101018.62
100964.44
100888.91
100950.28
101102.41
101032.21
101108.83
101258.26
101180.18
101311.92
101156.19
101091.59
101048.94
101127.76
101260.63
101094.8
101165.53
100974.79
101027.69
100956.1
100898.77
100984.35
101022.23
101195.9
101128.37
101290.77
101112.97
101178.78
101223.67
101223.33
101250.19
101269.84
101256.78
101227.89
101180.51
101105.87
101114.64
101046.64
101035.27
101099.17
101174.35
101193.51
101313.37
101247.96
101248.87
101251.76
101271.29
101277.66
101293.62
101293.01
101299.16
101301.87
101358.56
101303.08
101294.21
101287.87
101285.87
101270.78
101270.8
101275.57
101312.76
101307.71
101283.04
101287.56
101281.01
101309.87
101304.45
101297.87
101284.5
101279.23
101260.92
101236.45
101242.25
101268.18
101278.66
101261.5
101267.97
101275.77
101284.21
101286.89
101291.04
101296.33
101312.55
101309.07
101300.77
101304.04
101290.91
101289.59
101288.72
101279.94
101266.36
101251.12
101260.8
101275.35
101284.98
101297.07
101295.85
101304.8
101296.96
101315.71
101318.69
101310.73
101308.96
101315.42
101314.01
101319.49
101310.15
101310.18
101302.81
101305.94
101325.87
101313.1
101332.42
101325.15
101326.64
101302.62
101318.75
101321.37
101313.71
101313.96
101318.66
101301.11
101313.45
101321.06
101326.47
101331.41
101285.44
101314.35
101319.97
101326.07
101345.58
101318.29
101326.39
101322.45
101312.89
101312
101318.87
101311.25
101304.74
101301.32
101296.86
101283.77
101299.91
101293.32
101281.77
101273.1
101265.24
101273.74
101281.99
101298.3
101310.05
101333.31
101350.34
101336.71
101352.14
101343.86
101358.62
101352.18
101299.12
101294.77
101298.7
101307.58
101297.47
101308.39
101316.31
101283.42
101270.6
101273.79
101273.25
101277.9
101273.6
101291.85
101272.29
101255.35
101262.77
101278.01
101295.14
101295.66
101337.53
101335.43
101271.42
101278.28
101281.02
101281.91
101295.9
101332.62
101271.39
101289.09
101338.6
101299.13
101286.85
101285.61
101278.31
101294.49
101288.2
101291.42
101277.4
101282.1
101277.02
101262.44
101271.3
101264.39
101253.18
101256.56
101247.03
101266.55
101264.87
101248.71
101246.52
101247.71
101247.48
101253.72
101276.58
101264.65
101261.42
101252.05
101245.91
101241.05
101238.5
101233.1
101231.45
101237.23
101239.53
101244.82
101239.28
101248.11
101271.01
101264.79
101252.2
101257.55
101263.18
101283.38
101269
101275.6