/*--------------------------------*- C++ -*----------------------------------*\
  =========                 |
  \\      /  F ield         | OpenFOAM: The Open Source CFD Toolbox
   \\    /   O peration     | Website:  https://openfoam.org
    \\  /    A nd           | Version:  7
     \\/     M anipulation  |
\*---------------------------------------------------------------------------*/
FoamFile
{
    version     2.0;
    format      ascii;
    class       volScalarField;
    location    "10";
    object      rho;
}
// * * * * * * * * * * * * * * * * * * * * * * * * * * * * * * * * * * * * * //

dimensions      [1 -3 0 0 0 0 0];

internalField   nonuniform List<scalar> 
25278
(
1.1739553
1.1739484
1.173954
1.1739539
1.1739576
1.1739482
1.1739492
1.1739552
1.1739494
1.1739265
1.1739329
1.1739466
1.1739475
1.1739525
1.1739782
1.173954
1.1739484
1.1739493
1.17395
1.1739273
1.1739303
1.1739412
1.1739405
1.1739321
1.1739237
1.1739319
1.1739404
1.1739388
1.1739439
1.1739324
1.1739334
1.1739298
1.1739024
1.1739182
1.1739047
1.1739311
1.1739182
1.1738876
1.1739111
1.1738595
1.1738887
1.1738622
1.173837
1.1738521
1.1738854
1.1739243
1.1739274
1.1739045
1.1739182
1.1739307
1.1739294
1.1739229
1.1738873
1.1738964
1.1739139
1.1738796
1.1738576
1.1739009
1.1738227
1.1738476
1.173809
1.1737836
1.1737664
1.173855
1.1739055
1.173902
1.1738468
1.1737564
1.1738088
1.1738173
1.1737815
1.1737875
1.1738174
1.1738325
1.1738832
1.1738914
1.1739048
1.1739325
1.1739412
1.1739442
1.1739622
1.1739785
1.1739496
1.1739509
1.1739339
1.1739587
1.1739918
1.1740105
1.1739969
1.1740067
1.1739871
1.1739736
1.1739965
1.173992
1.1739756
1.1739746
1.1739509
1.1739729
1.1739373
1.173906
1.1739504
1.1739405
1.173888
1.1739064
1.1739109
1.1739631
1.1739892
1.1739866
1.1740006
1.1740053
1.1740128
1.17399
1.1739934
1.1739535
1.1739481
1.1738853
1.1738858
1.1739029
1.1739621
1.1739621
1.1739507
1.1739338
1.1739576
1.1739962
1.1739915
1.1740004
1.174005
1.1740126
1.1739916
1.1739587
1.1739622
1.1739442
1.1739494
1.1739783
1.1739964
1.17401
1.1739888
1.1739898
1.1739934
1.1739861
1.1739477
1.1739529
1.1738858
1.1739026
1.1739104
1.1739625
1.1739504
1.1739741
1.173975
1.1739732
1.173978
1.1740063
1.1739867
1.1739726
1.1739492
1.173937
1.1739059
1.1738877
1.1738847
1.1738933
1.1739013
1.1739014
1.1738935
1.1738843
1.1739097
1.173961
1.1739594
1.1739012
1.1738843
1.1739504
1.173946
1.1739637
1.1739729
1.1739004
1.1739164
1.1739853
1.173974
1.1739739
1.173985
1.1739162
1.1739013
1.1739737
1.1739633
1.1739458
1.1739398
1.1739499
1.1739056
1.1739095
1.1738838
1.1738846
1.1739505
1.1739595
1.17395
1.1739606
1.1739013
1.1738735
1.1738813
1.1739508
1.1740207
1.1740205
1.1739511
1.1738811
1.1738731
1.1738763
1.1738838
1.1739057
1.1739184
1.1739441
1.17393
1.1739335
1.1739317
1.1739028
1.1738891
1.1738623
1.1739184
1.1738875
1.1739115
1.1738597
1.1738368
1.1738516
1.1738581
1.1738848
1.1739217
1.1739271
1.1739101
1.1738605
1.1738878
1.1739116
1.1739241
1.1739146
1.1738965
1.1738286
1.1738248
1.1738594
1.1738851
1.1738744
1.173918
1.1739035
1.1739305
1.1739278
1.1739311
1.1739148
1.1738973
1.173848
1.1738087
1.1738796
1.1738572
1.1739017
1.173823
1.1737829
1.1737656
1.1738548
1.1739299
1.1739235
1.1738884
1.1739068
1.1738178
1.173809
1.1739032
1.1738463
1.1737554
1.1737709
1.1737811
1.1737975
1.1738233
1.1737815
1.1738383
1.173799
1.1738478
1.1738448
1.1739153
1.1738929
1.1738999
1.1738218
1.1738473
1.1738368
1.1738798
1.1738005
1.173812
1.1738042
1.1737889
1.1737311
1.1738088
1.173761
1.173777
1.1737039
1.1737512
1.1736579
1.173691
1.1737978
1.1737763
1.1737984
1.1738606
1.1739103
1.1739217
1.1738848
1.1739144
1.1738965
1.1738605
1.173826
1.173829
1.1738582
1.1738422
1.1738509
1.173801
1.1738286
1.1738364
1.1738631
1.1737924
1.173838
1.1737674
1.173837
1.1737615
1.1737161
1.1736261
1.1737019
1.1737676
1.1738382
1.1738837
1.1738843
1.1738373
1.1737615
1.1738327
1.1737924
1.1737162
1.1736261
1.1737289
1.1738118
1.1738635
1.1737291
1.1736201
1.1735155
1.1734675
1.1735705
1.1736564
1.1736944
1.1737664
1.173789
1.1737326
1.1736493
1.1737657
1.1738161
1.1737162
1.1736574
1.1735432
1.1736735
1.1737624
1.1736663
1.1736387
1.1737064
1.1736655
1.1738064
1.1737096
1.173747
1.1735983
1.1735495
1.1734014
1.1735862
1.1734291
1.1735167
1.1735663
1.1734227
1.1735608
1.1734907
1.1732779
1.1734638
1.1736955
1.1737628
1.1738425
1.173801
1.1736667
1.173638
1.1737054
1.1738287
1.1738364
1.1738638
1.1737892
1.1737318
1.1736474
1.1737645
1.1738159
1.1737153
1.1736565
1.1737669
1.1736728
1.1735653
1.1736949
1.1735592
1.1734197
1.1735407
1.1734683
1.1735954
1.1737453
1.1737069
1.1738059
1.1736636
1.1735456
1.1733964
1.1735845
1.173427
1.1735157
1.1733157
1.1732167
1.1731453
1.1733858
1.1736158
1.1735837
1.1737567
1.1737691
1.1737791
1.1736152
1.1736428
1.1735088
1.1734807
1.1736669
1.1736577
1.1736564
1.1737672
1.1736037
1.1736034
1.1734682
1.1734692
1.1732945
1.1735091
1.1735081
1.1735211
1.173555
1.1733448
1.1733063
1.1730943
1.1733362
1.1733204
1.1733262
1.1730818
1.173075
1.1732912
1.1731437
1.173362
1.17362
1.1736304
1.1733758
1.1734097
1.1734553
1.1736757
1.1737212
1.1737415
1.1738119
1.1737505
1.1738181
1.1738776
1.1737353
1.1736491
1.1735927
1.1737135
1.173788
1.1736773
1.1736443
1.1737086
1.1738708
1.1735966
1.1734114
1.1735399
1.173464
1.1733128
1.1734935
1.1734818
1.1736387
1.1736658
1.1737824
1.173875
1.1737717
1.1736745
1.1736886
1.1735532
1.1735307
1.1736431
1.1736122
1.1738833
1.1734358
1.1731984
1.1732411
1.1734098
1.1733786
1.1730828
1.1731031
1.1731598
1.1731948
1.1732754
1.1733279
1.1734332
1.1734892
1.1736567
1.1734628
1.173333
1.173571
1.1733676
1.1731228
1.1732751
1.1731378
1.1733934
1.1735705
1.1733941
1.1732828
1.1730096
1.1732221
1.1733196
1.1734718
1.1733698
1.1735232
1.173723
1.1737835
1.1738397
1.1738747
1.1738486
1.1738018
1.1737471
1.1737988
1.1738241
1.1738115
1.1737504
1.1737137
1.173593
1.1736492
1.1737349
1.1736773
1.1736653
1.1735537
1.1736889
1.1736749
1.173771
1.1736429
1.1735315
1.173379
1.17341
1.1734642
1.1735399
1.1737081
1.1738695
1.1736442
1.1734929
1.1735959
1.1734113
1.1733124
1.1732407
1.1734808
1.1736378
1.1736118
1.1734349
1.1731977
1.1726872
1.1728284
1.1730901
1.1732012
1.1734088
1.1735095
1.1737376
1.1737728
1.1738353
1.1739156
1.1738946
1.1739011
1.1739122
1.1738881
1.1738802
1.1738388
1.1738488
1.1738061
1.1738126
1.1738015
1.1737914
1.1737355
1.1738116
1.1738239
1.1737807
1.1737663
1.1736858
1.1737091
1.1737545
1.1736615
1.1736941
1.1737984
1.1737765
1.1737572
1.1737703
1.1737802
1.1736707
1.1734862
1.173618
1.1736449
1.1735135
1.1733506
1.1735568
1.1736156
1.1735837
1.1735109
1.1736065
1.173607
1.1737687
1.1736611
1.1736621
1.1734745
1.173476
1.1733031
1.1735124
1.1733301
1.173324
1.1733393
1.1735237
1.1733133
1.1731022
1.1731517
1.1733881
1.1732277
1.1734863
1.1734411
1.1731511
1.1731691
1.1728506
1.1729158
1.1726547
1.1730208
1.1730875
1.1732489
1.1733335
1.1731257
1.1733691
1.1732788
1.1729239
1.1731412
1.1729223
1.1732774
1.1731012
1.1727068
1.1724094
1.1726933
1.1729479
1.1731421
1.1729714
1.1731803
1.1733096
1.1734589
1.1735862
1.1737427
1.1736931
1.1737793
1.1736308
1.1736834
1.1736172
1.1735554
1.1733742
1.1735249
1.1734466
1.173667
1.1736078
1.1736788
1.173461
1.1733716
1.1732932
1.17358
1.1736454
1.1736732
1.1737747
1.1737533
1.1736371
1.1734237
1.1734705
1.1736022
1.1735643
1.1734752
1.1735193
1.1732997
1.1732343
1.1730137
1.1731009
1.1731998
1.1734147
1.1735089
1.1734345
1.1731417
1.1730052
1.1733312
1.1731583
1.1732986
1.1729539
1.172786
1.1725094
1.1727947
1.1730395
1.1732621
1.173154
1.1732798
1.1730568
1.1728917
1.1727432
1.1730445
1.1731709
1.1733805
1.173321
1.173604
1.173526
1.1732223
1.1729434
1.1730865
1.1728019
1.1729161
1.1726366
1.1728802
1.1732785
1.1733695
1.1732984
1.1732676
1.1734515
1.1735458
1.1737535
1.1737827
1.1738456
1.1737925
1.1737771
1.1737067
1.1737215
1.1736769
1.1737699
1.1737533
1.1737355
1.1737537
1.1736589
1.1736293
1.1736494
1.1734184
1.1734435
1.1735081
1.1735433
1.1736253
1.1736351
1.1735537
1.1735865
1.1733182
1.1734167
1.1733843
1.1732802
1.1732655
1.1733714
1.1733748
1.1736246
1.1735441
1.1732709
1.1731771
1.1735089
1.1734454
1.1730913
1.1730833
1.1731704
1.1731871
1.17352
1.173556
1.1734986
1.1734564
1.1731024
1.1731517
1.1732309
1.1729548
1.173077
1.1732169
1.1731728
1.1730252
1.1727146
1.1729098
1.1729688
1.1727848
1.1726175
1.1725351
1.1728944
1.1727722
1.1728412
1.1724622
1.1726062
1.1724877
1.1728587
1.1731631
1.1735076
1.1735904
1.173625
1.1736006
1.1737389
1.1735203
1.1733528
1.1733842
1.173272
1.1732319
1.1735625
1.1734709
1.1731149
1.1730826
1.1734602
1.1735543
1.1735934
1.173586
1.1737337
1.1735015
1.1733211
1.1733315
1.1732052
1.1731917
1.1735459
1.1734486
1.1730662
1.1727175
1.1727419
1.1727888
1.1729593
1.1730169
1.1731787
1.1731347
1.1734221
1.1732187
1.1728775
1.1729378
1.1727054
1.1726257
1.1723901
1.1723232
1.1725721
1.1729212
1.173104
1.1730893
1.1733996
1.1731853
1.172815
1.1728359
1.1725349
1.1725908
1.1726699
1.1727679
1.1732001
1.1729807
1.1730957
1.1726296
1.1724867
1.1721178
1.1724886
1.1722237
1.1724039
1.1725961
1.1728051
1.172514
1.1727754
1.1724703
1.1727977
1.1730865
1.1732808
1.1730042
1.1727705
1.1729445
1.1732481
1.1729869
1.1726908
1.1724671
1.172131
1.171926
1.1723108
1.1726889
1.1730194
1.1732259
1.1731662
1.172936
1.1725628
1.1728421
1.1729088
1.1726482
1.1723066
1.1721983
1.1725956
1.1729377
1.1725703
1.1725407
1.1728279
1.1730841
1.173299
1.173156
1.1731639
1.1730167
1.1730057
1.1726884
1.1728879
1.1729008
1.1730918
1.172839
1.1731565
1.1729268
1.1729186
1.1725706
1.1729164
1.1731481
1.1731528
1.1729244
1.1725475
1.1728282
1.172818
1.1725316
1.1721584
1.1721812
1.1725825
1.1721891
1.1725577
1.1722449
1.172599
1.1725802
1.1726089
1.1726874
1.1724524
1.1723584
1.1719403
1.1722575
1.1723596
1.1720641
1.1722527
1.1720061
1.1723086
1.1719338
1.1721821
1.1724426
1.1727286
1.1727287
1.1732033
1.1730552
1.1725313
1.1722492
1.1724826
1.1730213
1.1728344
1.1727511
1.1729839
1.1723401
1.1721611
1.1728583
1.1725745
1.1717908
1.1720159
1.1714976
1.1718059
1.1721172
1.1717709
1.1721652
1.1718505
1.171389
1.1709989
1.1715405
1.1712376
1.171772
1.1715089
1.1720275
1.1722335
1.1721222
1.1718962
1.1723668
1.1723295
1.1727458
1.1728715
1.172885
1.172761
1.1723514
1.1725241
1.1727058
1.1723475
1.1723235
1.171893
1.1722199
1.171781
1.1721648
1.1722036
1.1717898
1.1717377
1.1717704
1.1713119
1.1718142
1.1714161
1.1719246
1.171606
1.1721063
1.1720788
1.1725035
1.1718425
1.1718698
1.1712814
1.1712529
1.1715722
1.1716315
1.1717814
1.1712438
1.171604
1.1719644
1.1718311
1.1714405
1.170857
1.1713406
1.1715124
1.1710712
1.1706128
1.1703459
1.171044
1.1706415
1.1713306
1.1710555
1.1716931
1.1722189
1.1726681
1.1730304
1.1734329
1.173478
1.1734389
1.1733893
1.1729713
1.1730308
1.1730851
1.1727449
1.1726652
1.1725808
1.1720931
1.1722133
1.1723264
1.171843
1.1720649
1.1723613
1.1722543
1.1719319
1.1713811
1.1715616
1.1719513
1.1723603
1.1729374
1.1731648
1.1731104
1.1728541
1.172256
1.1718085
1.1717119
1.1721819
1.1718397
1.1717894
1.1722879
1.1725436
1.1729012
1.1729026
1.1731926
1.1735459
1.1737071
1.1737773
1.1739156
1.1739046
1.1739303
1.1739491
1.1739498
1.1739491
1.1739717
1.173949
1.1739604
1.1739593
1.1739011
1.1739092
1.1738835
1.1738839
1.1739502
1.1739454
1.1739382
1.1738866
1.1739051
1.1739365
1.1739492
1.1739052
1.1739095
1.1738837
1.1738926
1.1739005
1.173973
1.173963
1.1739733
1.1739849
1.1739159
1.1739008
1.1738844
1.1739504
1.1739454
1.1739607
1.1739502
1.1739596
1.1739609
1.1739459
1.1739636
1.1739733
1.1739853
1.1739167
1.1739012
1.1738931
1.1739013
1.1739736
1.1739508
1.1738846
1.1738841
1.1739094
1.17395
1.1739597
1.1739015
1.1738734
1.1738814
1.1739509
1.1740207
1.17402
1.1739505
1.1738805
1.1738729
1.1738872
1.1739227
1.1739293
1.1739305
1.1739271
1.1738962
1.1739006
1.1739055
1.173902
1.1738468
1.1738552
1.1737667
1.1737565
1.1738088
1.1738175
1.1738228
1.173784
1.1738577
1.1738796
1.1739136
1.1738476
1.1738094
1.1738247
1.1738749
1.1739183
1.1739014
1.1738947
1.173754
1.1737358
1.1737548
1.1737711
1.1737933
1.1738459
1.1738353
1.173773
1.1737832
1.1737226
1.1736786
1.1736595
1.1736301
1.1736516
1.1736886
1.1737679
1.1737819
1.1738027
1.1738489
1.1737993
1.1737484
1.173785
1.1738406
1.1738252
1.1738133
1.1737383
1.1737567
1.1737112
1.1735032
1.1734823
1.1734422
1.1734294
1.1734154
1.1734148
1.1734271
1.1733759
1.1733625
1.1729111
1.1729315
1.1729939
1.1729755
1.1725832
1.1726117
1.1725222
1.1724907
1.1719599
1.1720082
1.1721361
1.172094
1.1715137
1.1715772
1.1716849
1.1715132
1.1708009
1.171043
1.1712624
1.1705541
1.1708865
1.1701438
1.1706071
1.1711881
1.1716912
1.1714747
1.1719999
1.172809
1.1727158
1.1718634
1.1714069
1.1715858
1.1725129
1.1723753
1.1723374
1.171281
1.1717678
1.1721832
1.1721451
1.1725069
1.173072
1.1727999
1.1726545
1.1717145
1.1712094
1.1722863
1.1721233
1.1721842
1.1722261
1.1723837
1.1724492
1.1726431
1.1727339
1.1729342
1.1730217
1.1732021
1.1732972
1.1729495
1.1731369
1.1733053
1.1734553
1.1735834
1.1736825
1.1736287
1.1737789
1.1736905
1.1735209
1.1734407
1.173519
1.1733644
1.1732726
1.1730484
1.1731741
1.1730305
1.1732545
1.1733688
1.1735533
1.1736163
1.1735074
1.1734113
1.1731934
1.1730923
1.1732926
1.1734651
1.1736704
1.1737747
1.1736001
1.1735608
1.1737529
1.173633
1.1734168
1.1733112
1.1733727
1.1736419
1.1736638
1.1736026
1.1733634
1.1731434
1.1728793
1.1727264
1.1730306
1.1732826
1.1735742
1.1737439
1.1737175
1.1737895
1.1737732
1.1738342
1.173834
1.1739153
1.1739035
1.1739482
1.1739539
1.1739553
1.1739493
1.1739524
1.1739403
1.1739411
1.1739304
1.1739235
1.1739299
1.1739031
1.1738883
1.1738089
1.1737555
1.1738464
1.1738548
1.1739068
1.1738177
1.1737655
1.173783
1.1738571
1.1739309
1.1739277
1.173897
1.1739013
1.1738228
1.1738478
1.1739145
1.1738794
1.1738086
1.1738233
1.1737974
1.1737812
1.1737708
1.1737019
1.1737017
1.1736508
1.1736701
1.1737656
1.1737473
1.1736399
1.1736788
1.1734981
1.1735346
1.1735459
1.1735805
1.1733081
1.1732682
1.1732518
1.173256
1.1733644
1.1736186
1.1735346
1.1734977
1.1731571
1.1731524
1.1731714
1.173511
1.1735492
1.1732178
1.1731352
1.1734891
1.1735178
1.1735991
1.173585
1.173621
1.1737537
1.1735425
1.1733761
1.1733436
1.1735955
1.1737385
1.173516
1.1734174
1.173448
1.1734717
1.173517
1.173366
1.1732927
1.1730026
1.1732253
1.1730736
1.1731608
1.1729039
1.1727865
1.1725844
1.172926
1.1732089
1.1731471
1.1734989
1.1734598
1.1735562
1.1732185
1.1732605
1.1730018
1.1731683
1.1729248
1.1732622
1.1732111
1.1728623
1.1731223
1.1729416
1.172764
1.1728374
1.1724615
1.1726866
1.1726036
1.1723587
1.1722887
1.1727143
1.1730621
1.1730965
1.1730073
1.1730652
1.1734679
1.1734194
1.173444
1.1730825
1.1730604
1.1734298
1.1734297
1.1730658
1.1727249
1.1728581
1.1729967
1.1731504
1.1728841
1.172873
1.1728969
1.1731621
1.1732078
1.1729582
1.1727692
1.173064
1.1730095
1.1726952
1.1726662
1.1729877
1.1728476
1.1728734
1.1729374
1.172596
1.1725089
1.1723323
1.1727455
1.1728188
1.1724347
1.1719944
1.1722091
1.1724347
1.1726758
1.1727959
1.172965
1.1727223
1.1725052
1.1722389
1.1725826
1.1727845
1.1729985
1.1727792
1.1731549
1.1730521
1.1725255
1.1727253
1.172481
1.1722444
1.1728326
1.1727491
1.1729809
1.1730923
1.1726202
1.1728708
1.1727562
1.1724739
1.1729749
1.1728523
1.1721484
1.1723311
1.1720082
1.1717797
1.1725696
1.1725083
1.1728041
1.1729315
1.1723447
1.1726552
1.1725732
1.1722369
1.1728456
1.1727079
1.1718431
1.1719836
1.1715711
1.1713877
1.1723674
1.1723288
1.1726793
1.17282
1.1721618
1.1725152
1.1728186
1.1730906
1.1733212
1.173588
1.1737375
1.173505
1.1734964
1.1737334
1.1735799
1.1733101
1.1731759
1.1731904
1.1735477
1.173449
1.173436
1.1735387
1.1735382
1.1735802
1.1737331
1.1736744
1.1737717
1.1738749
1.1736428
1.1735306
1.1735531
1.1736887
1.1737822
1.1736658
1.1736384
1.173612
1.173883
1.1734357
1.1731979
1.1733786
1.1734096
1.1732406
1.1734817
1.1734927
1.1736439
1.1736769
1.1737878
1.1738771
1.1738177
1.1737504
1.1737134
1.1735925
1.1736488
1.1737351
1.1737081
1.1738701
1.173596
1.1734111
1.1733121
1.173464
1.1735397
1.1733292
1.1732766
1.1731962
1.1731613
1.1731043
1.1730837
1.1730637
1.1730638
1.173176
1.1731937
1.173404
1.1733942
1.1730744
1.1727963
1.1725167
1.1725474
1.1729016
1.17288
1.1726876
1.1730442
1.1729471
1.1729678
1.1734136
1.1734267
1.1733725
1.1729425
1.1730062
1.1729812
1.1734034
1.1734024
1.1729855
1.1729172
1.1733537
1.1733547
1.1729144
1.1724995
1.1725998
1.172715
1.1722897
1.1724732
1.1724885
1.1726807
1.1723175
1.1725801
1.1725636
1.1725946
1.1722434
1.1723485
1.1720459
1.1719175
1.1723368
1.1722978
1.1718662
1.1722035
1.1722255
1.1718918
1.1713773
1.1717952
1.1717657
1.1718188
1.1719545
1.1721581
1.1724376
1.1721144
1.171767
1.1713796
1.1718376
1.1721731
1.1724996
1.1722944
1.1726233
1.1723847
1.1719864
1.1717457
1.1721992
1.1724708
1.1720992
1.1716721
1.1719202
1.1715206
1.1709827
1.1714864
1.1717995
1.1713914
1.1717714
1.1722192
1.1719408
1.1716053
1.1719382
1.1727313
1.1732865
1.173585
1.173911
1.1734724
1.1731637
1.1730143
1.1731639
1.1734723
1.1733119
1.1732975
1.173471
1.173072
1.1730162
1.1734186
1.1732174
1.1728222
1.1728976
1.1727561
1.1728974
1.1730722
1.1734716
1.1739523
1.1732992
1.1732178
1.1734186
1.1730162
1.1728218
1.1726629
1.17321
1.1732955
1.1732097
1.1726633
1.1725673
1.1731136
1.1731125
1.1732098
1.1732173
1.1734184
1.173435
1.1736116
1.1736429
1.1737709
1.173675
1.1736894
1.1737816
1.1736658
1.1735543
1.1735318
1.1733791
1.1734108
1.1736381
1.1734811
1.1732413
1.1731986
1.1726552
1.1728004
1.1730726
1.1731855
1.1733996
1.1735017
1.1737335
1.1735862
1.1735945
1.173738
1.1735106
1.1733332
1.1733216
1.1730901
1.173107
1.1734101
1.1732034
1.1728399
1.1728164
1.1725462
1.1722913
1.1727195
1.1730675
1.1734491
1.1734622
1.1735558
1.1732079
1.1730862
1.1731206
1.1734738
1.1735641
1.1736021
1.1737391
1.173754
1.173627
1.1733879
1.1733559
1.1735218
1.1735479
1.1734538
1.1734237
1.1731388
1.1731842
1.1729455
1.1728837
1.1732216
1.1732716
1.1733023
1.1734776
1.1735662
1.1737539
1.1737142
1.1737875
1.1738757
1.1738172
1.173751
1.17365
1.1735938
1.1736775
1.1737352
1.173708
1.1736441
1.1738684
1.1734932
1.1733135
1.1734653
1.1735409
1.1734125
1.173596
1.1736201
1.1737288
1.1737615
1.1738322
1.1738594
1.1739107
1.1739332
1.1739411
1.1739276
1.1739243
1.1739125
1.1739108
1.1739239
1.1739218
1.1739324
1.1739387
1.1739436
1.1739295
1.173902
1.1739307
1.1739047
1.1739181
1.1738877
1.1738372
1.1738625
1.1738884
1.1738827
1.173891
1.1738383
1.1737926
1.1737166
1.1737681
1.1738365
1.173883
1.1739051
1.1739179
1.1738832
1.1738621
1.1738111
1.1737026
1.1736268
1.1735162
1.1736265
1.1737284
1.1737612
1.1738367
1.1737681
1.1738381
1.1738828
1.1738321
1.1737922
1.1737162
1.1736956
1.1737638
1.1738515
1.1738428
1.173863
1.1738524
1.1738855
1.1738612
1.173897
1.1738853
1.1739144
1.1738587
1.1738303
1.173827
1.1738077
1.1738498
1.1738402
1.1738812
1.1738618
1.1738887
1.1738145
1.1738039
1.1737936
1.1736667
1.1736308
1.1735494
1.1735146
1.1734499
1.1734246
1.1733785
1.1733631
1.1733466
1.1733459
1.1733596
1.1733738
1.1733757
1.1734202
1.1730178
1.1730089
1.1729475
1.1729563
1.1729149
1.1733614
1.1733471
1.1728934
1.1728843
1.1729059
1.1724846
1.1725458
1.172638
1.1726542
1.1725614
1.1720581
1.1721978
1.1721751
1.1720402
1.171949
1.1719649
1.1724995
1.1724648
1.1724499
1.171894
1.1719098
1.1712048
1.1712976
1.1714413
1.1716553
1.1716288
1.1714308
1.1706705
1.1709616
1.1709811
1.1706437
1.1704086
1.170479
1.1712973
1.1713924
1.1713177
1.1705212
1.1706364
1.1708952
1.1712567
1.1711845
1.1716569
1.1721422
1.172146
1.1725087
1.1725402
1.1730924
1.1728319
1.1721899
1.172148
1.1716621
1.1711932
1.1717941
1.1718512
1.1723318
1.1727476
1.1729253
1.172578
1.172635
1.1729658
1.173236
1.1732771
1.173593
1.1735112
1.1731701
1.1728694
1.1727973
1.172403
1.172503
1.1727167
1.1730248
1.173095
1.1733267
1.1736064
1.1736392
1.1736754
1.1737752
1.1736044
1.1734746
1.1734277
1.1732401
1.1733056
1.1735218
1.1733738
1.1731094
1.1730217
1.1728142
1.1726227
1.1729549
1.1732299
1.1735301
1.173584
1.1736482
1.1733865
1.173301
1.1733791
1.1736121
1.1736696
1.1736953
1.1737797
1.1738118
1.1737445
1.1735899
1.173529
1.1736329
1.1736852
1.1736192
1.1735578
1.1733799
1.1734639
1.1733168
1.1732079
1.1734189
1.1735122
1.1734382
1.1733357
1.1732832
1.1732045
1.1731692
1.1731134
1.1725987
1.1726796
1.172373
1.1722664
1.1728587
1.1729437
1.1728156
1.1727204
1.1726911
1.1717754
1.1717192
1.1712144
1.1722874
1.172342
1.171291
1.1704929
1.1711656
1.1717224
1.17219
1.1722669
1.1719501
1.1720855
1.1723765
1.1719701
1.1718254
1.171406
1.1712722
1.1705569
1.17044
1.1704262
1.1705379
1.1707104
1.1709596
1.1702407
1.1709065
1.170651
1.1712841
1.171152
1.1710743
1.1703658
1.1704761
1.1696667
1.1699012
1.1692585
1.1702425
1.1698892
1.1702665
1.169301
1.1698105
1.1696447
1.1705281
1.1709604
1.1713765
1.1707681
1.1712726
1.1706923
1.1712652
1.1713339
1.1715073
1.1710584
1.1715864
1.1714174
1.1708408
1.1707497
1.1713485
1.1709146
1.1715336
1.1720429
1.1720913
1.1715986
1.1717551
1.1714738
1.1712859
1.1718551
1.1717941
1.1718064
1.1720617
1.171555
1.1712069
1.1712034
1.1704622
1.1705855
1.1710061
1.1712159
1.1705897
1.1703164
1.1697674
1.1701105
1.1708463
1.1712098
1.170585
1.171172
1.1708862
1.1714507
1.1719279
1.1723401
1.1720344
1.1715297
1.1713414
1.1718952
1.1722285
1.1717803
1.1712522
1.1706655
1.1709251
1.1702149
1.1698677
1.170624
1.1704447
1.1711167
1.17168
1.1721533
1.1717991
1.1712149
1.1711382
1.1717449
1.1722503
1.1720425
1.1720896
1.172172
1.1722922
1.1727182
1.1726353
1.1721762
1.1720401
1.1725409
1.1726331
1.1725759
1.1724771
1.1728996
1.1733582
1.1733424
1.1734006
1.1733999
1.1736509
1.1737484
1.1737484
1.173728
1.1736179
1.1733397
1.1733372
1.17287
1.1728686
1.1728436
1.173324
1.17332
1.1728428
1.1723858
1.1724319
1.1725032
1.1726088
1.1721339
1.1723032
1.1723891
1.1725617
1.1727406
1.1729309
1.1731168
1.1733351
1.1735847
1.1737941
1.1738558
1.1739059
1.1739219
1.1739328
1.1739441
1.1739526
1.1739442
1.1739357
1.1739407
1.1739261
1.1739056
1.1739169
1.1738812
1.1738556
1.173871
1.1739052
1.1739124
1.1738789
1.173878
1.1738127
1.1737962
1.1737874
1.1738315
1.1738451
1.1738
1.173822
1.1738274
1.1738574
1.1738962
1.1738775
1.1738529
1.1738328
1.1739012
1.1739044
1.1739327
1.1739143
1.1739213
1.1739228
1.1739373
1.1739266
1.1739011
1.1739004
1.173915
1.1738981
1.1738748
1.1738733
1.1738891
1.1739088
1.1738952
1.1739134
1.1739129
1.1739218
1.1739351
1.1739327
1.1739274
1.1739319
1.1739188
1.1739152
1.1739312
1.1739301
1.1739087
1.1738866
1.1739039
1.1738794
1.1738649
1.1738237
1.1738484
1.1738237
1.1738322
1.1738361
1.1738814
1.1739172
1.1739132
1.1739061
1.1738717
1.1738786
1.1738471
1.1738338
1.1737903
1.1737973
1.1738137
1.1738026
1.1738242
1.1738548
1.1738797
1.1738966
1.1738787
1.17385
1.173858
1.1738284
1.1737954
1.1737738
1.1737538
1.1737637
1.1737705
1.1736794
1.1736632
1.173491
1.1736111
1.1736284
1.1735162
1.1735519
1.1736917
1.1737711
1.1737904
1.173721
1.1735923
1.1736788
1.1736446
1.1735654
1.1736409
1.1735849
1.173517
1.1735396
1.1733644
1.1733267
1.1731269
1.1733395
1.1733835
1.1731824
1.1732572
1.1734173
1.173476
1.1736085
1.1734922
1.17342
1.1732875
1.1735222
1.1736406
1.1737731
1.1737532
1.1737619
1.1737688
1.1736251
1.1736075
1.173484
1.1736581
1.1736745
1.1735092
1.1735454
1.1736411
1.1737692
1.1737888
1.173676
1.1735866
1.1737169
1.1736869
1.1736547
1.1737535
1.173823
1.1738914
1.1738026
1.173732
1.1736815
1.1737564
1.1737869
1.1737109
1.1737539
1.1737858
1.1737095
1.1737343
1.173794
1.1737948
1.1736862
1.173766
1.17372
1.1737615
1.1737355
1.1738141
1.1737668
1.1736754
1.1736316
1.1737004
1.1736383
1.1736056
1.1735621
1.1735363
1.1735136
1.1733178
1.1733559
1.1731724
1.1733797
1.1734156
1.1734891
1.1733315
1.1734691
1.1734092
1.173248
1.1730602
1.173284
1.1732305
1.1734532
1.1731772
1.173234
1.1729676
1.1728902
1.1726252
1.1729572
1.1730444
1.1727322
1.1728652
1.1730698
1.1731809
1.1733396
1.1734266
1.1735391
1.1736364
1.173738
1.1737958
1.1738155
1.1737699
1.1736793
1.1737374
1.1737031
1.173641
1.1736866
1.1737663
1.1738326
1.1738251
1.1738466
1.1738194
1.1737899
1.1737232
1.1737633
1.1737967
1.1737618
1.1737137
1.1737625
1.1737218
1.1736838
1.1735997
1.1735103
1.1736084
1.1735371
1.173441
1.1736071
1.1737052
1.1735945
1.1736559
1.1737193
1.1736625
1.1735913
1.1736605
1.1736192
1.17369
1.1737739
1.1738263
1.1738666
1.1739026
1.1739055
1.1739331
1.1739409
1.1739232
1.173922
1.173901
1.1739013
1.1739156
1.1739096
1.17389
1.1738743
1.1738753
1.1738986
1.1738959
1.1738796
1.1738579
1.1738868
1.1738827
1.1738723
1.1738563
1.1738367
1.1738593
1.1738267
1.1738441
1.17382
1.1737975
1.1737616
1.1737933
1.1738113
1.1738647
1.173849
1.1738636
1.173882
1.1738963
1.1738915
1.1738745
1.1738539
1.173875
1.1738633
1.1738708
1.1738629
1.1738321
1.1738017
1.1738223
1.1738008
1.1737757
1.1737247
1.1737573
1.1737226
1.1737806
1.173811
1.1738576
1.1738865
1.1738645
1.1738488
1.1738633
1.1738822
1.1738717
1.1738554
1.1738457
1.1737956
1.1737596
1.1738176
1.1737873
1.1737202
1.1736571
1.1735952
1.1736819
1.1736063
1.1735337
1.1734201
1.1735333
1.1734597
1.1735753
1.1735186
1.1736899
1.1736365
1.1735882
1.1735688
1.1736407
1.1736207
1.1733845
1.1734189
1.1733258
1.1732822
1.1735391
1.1735024
1.1735352
1.1732413
1.1731891
1.1731025
1.1734363
1.1734776
1.1731636
1.1732442
1.1733109
1.173384
1.1734653
1.1733016
1.173234
1.1731814
1.1730373
1.1731042
1.1728364
1.1730068
1.1731029
1.173212
1.1733797
1.1732859
1.1734499
1.1733887
1.1736099
1.1735568
1.1735039
1.1735695
1.1733346
1.1731302
1.1732044
1.1730894
1.1731891
1.1729575
1.1730919
1.1729848
1.1728239
1.1726775
1.1729873
1.1729068
1.1727827
1.1728769
1.1725259
1.1726994
1.1729966
1.1729179
1.1731882
1.1734806
1.1736784
1.1737744
1.1738809
1.1738938
1.1737915
1.1738028
1.1738466
1.1738024
1.1737878
1.1738407
1.173834
1.1737793
1.1737587
1.1737201
1.1737401
1.173643
1.1736199
1.1736594
1.1737178
1.1737308
1.1735865
1.1736033
1.1736386
1.1736622
1.1737132
1.1737474
1.1736312
1.1735877
1.1735193
1.1733849
1.1734826
1.1735399
1.1734325
1.1735053
1.1735877
1.1736539
1.1737183
1.1737614
1.1737114
1.17366
1.1736037
1.1736699
1.1735928
1.1735278
1.1734383
1.1733728
1.1732392
1.1731106
1.1730421
1.1729545
1.1731736
1.1728791
1.1729569
1.1727221
1.1726149
1.1722757
1.1726459
1.1727539
1.1724285
1.1722834
1.1718964
1.1720883
1.1724203
1.1725997
1.1728776
1.1731131
1.173241
1.1733757
1.1730132
1.1728011
1.1730293
1.1727953
1.1730055
1.1731726
1.1732909
1.1734036
1.1733027
1.1734475
1.1733199
1.173156
1.1729916
1.173167
1.1733218
1.1734487
1.1735297
1.1734087
1.1732976
1.173162
1.1733071
1.1734389
1.1735145
1.173606
1.1736708
1.1736302
1.173526
1.1734401
1.1735249
1.1736296
1.1735532
1.1734359
1.1735109
1.1734491
1.1735331
1.1736141
1.1736856
1.1737706
1.173805
1.1737344
1.1737108
1.173786
1.1737415
1.1736529
1.1735724
1.1736525
1.1736817
1.1736224
1.173589
1.1734833
1.1733622
1.1732294
1.1733232
1.1731754
1.1730275
1.1728817
1.1727507
1.172646
1.1723162
1.1724575
1.1721869
1.1725344
1.1724022
1.1720087
1.171539
1.1719192
1.1721084
1.1717195
1.1714703
1.1713018
1.1707847
1.1702078
1.1709311
1.1704344
1.1695427
1.1696082
1.1701975
1.1693063
1.17004
1.1701665
1.170786
1.1710086
1.1713372
1.1708691
1.1713958
1.1709359
1.17029
1.1708632
1.1703628
1.171003
1.1716496
1.1726412
1.1723613
1.172472
1.1723617
1.1712579
1.1716566
1.1713749
1.1709063
1.1720942
1.1719483
1.1722439
1.1708347
1.1712537
1.1708983
1.1713644
1.1724437
1.1720902
1.1719449
1.1703978
1.1698702
1.170402
1.1692448
1.1699611
1.1706186
1.1710128
1.1703767
1.1698681
1.1690136
1.1696707
1.1704612
1.1698716
1.1704554
1.1696614
1.1689971
1.1698463
1.1706038
1.1699494
1.16924
1.1680426
1.1688871
1.1680491
1.1669926
1.1684643
1.1676943
1.1686291
1.169482
1.1702514
1.1711131
1.170879
1.1702689
1.1705739
1.1720061
1.1717826
1.1717224
1.1700442
1.1707123
1.1706103
1.1699083
1.1716323
1.1714252
1.1715312
1.1716001
1.1718557
1.1699835
1.1695949
1.1688725
1.1693531
1.171431
1.171559
1.1714316
1.1718523
1.1720032
1.1723789
1.1710988
1.170561
1.1702496
1.1708586
1.1722177
1.1717749
1.1715929
1.1695802
1.1699759
1.1693476
1.1688618
1.1710853
1.1709908
1.1715246
1.1717151
1.1721761
1.1706865
1.1712591
1.1717438
1.1716877
1.1721209
1.1724853
1.1721105
1.1716222
1.1710328
1.1703743
1.17049
1.1696385
1.1694754
1.17033
1.171182
1.1722751
1.1726444
1.1727891
1.1727889
1.1721214
1.1724856
1.1727966
1.1730747
1.1733105
1.1734964
1.1735053
1.1737376
1.1735884
1.173322
1.1731919
1.1731761
1.1730449
1.1734366
1.1734494
1.1735484
1.1735563
1.1737176
1.1737897
1.1737734
1.173845
1.1738477
1.1739179
1.1738998
1.1738929
1.1737281
1.1736183
1.1736407
1.1737478
1.1737659
1.1736706
1.1737045
1.1737772
1.1737993
1.1737443
1.1737817
1.1738384
1.1738743
1.173885
1.1739239
1.1739271
1.1739114
1.1738474
1.173822
1.1738091
1.1737615
1.1736797
1.1737317
1.1737518
1.1738044
1.1738249
1.1738595
1.1738963
1.1738846
1.1739145
1.1739182
1.1738875
1.1739334
1.1739298
1.1739025
1.1739111
1.1738594
1.1738366
1.173862
1.1739046
1.1739314
1.1738887
1.1738833
1.1738324
1.1738838
1.1737612
1.173716
1.1737922
1.1738379
1.173891
1.1738368
1.1737675
1.1737018
1.1736258
1.1737285
1.1738629
1.1736197
1.1735153
1.1736258
1.1737287
1.1738113
1.1738366
1.1738835
1.1739054
1.1739181
1.1739386
1.1739439
1.1739323
1.1739215
1.1739236
1.17391
1.1738603
1.1738877
1.1738796
1.173837
1.1737892
1.1738006
1.173812
1.1738285
1.173858
1.1738515
1.1738157
1.1738116
1.1737787
1.1737747
1.1737528
1.1737536
1.1737383
1.1735962
1.173345
1.1735164
1.173543
1.1733777
1.1736215
1.1735862
1.1735001
1.1734613
1.173099
1.173064
1.1727176
1.172688
1.1728804
1.1725172
1.172251
1.1722936
1.1725508
1.1729036
1.1730919
1.1734046
1.1733942
1.1731763
1.1731944
1.1728206
1.1728648
1.1731241
1.1734179
1.1732124
1.1732632
1.1734487
1.1731702
1.1729278
1.1726913
1.1726071
1.1729444
1.1732204
1.1732625
1.1731502
1.1728419
1.1727675
1.1723645
1.172468
1.1723011
1.1721788
1.1720967
1.1720429
1.1725448
1.172544
1.172441
1.1728763
1.1728765
1.173343
1.1733593
1.1734151
1.1729704
1.1729477
1.1729024
1.172872
1.172844
1.1733235
1.17332
1.1728427
1.1728735
1.173339
1.1733415
1.1733562
1.1733742
1.1734275
1.1730102
1.1729462
1.1730104