/*--------------------------------*- C++ -*----------------------------------*\
  =========                 |
  \\      /  F ield         | OpenFOAM: The Open Source CFD Toolbox
   \\    /   O peration     | Website:  https://openfoam.org
    \\  /    A nd           | Version:  7
     \\/     M anipulation  |
\*---------------------------------------------------------------------------*/
FoamFile
{
    version     2.0;
    format      ascii;
    class       volScalarField;
    location    "270";
    object      rho;
}
// * * * * * * * * * * * * * * * * * * * * * * * * * * * * * * * * * * * * * //

dimensions      [1 -3 0 0 0 0 0];

internalField   nonuniform List<scalar> 
24866
(
1.1739157
1.1739151
1.1739152
1.1739155
1.1739156
1.1739155
1.1739156
1.1739156
1.1739155
1.1739156
1.1739156
1.1739156
1.1739156
1.1739155
1.1739156
1.1739156
1.1739155
1.1739155
1.1739155
1.1739155
1.1739155
1.1739155
1.1739156
1.1739155
1.1739154
1.1739155
1.1739155
1.1739156
1.1739156
1.1739155
1.1739155
1.1739155
1.1739155
1.1739155
1.1739156
1.1739156
1.1739156
1.1739155
1.1739155
1.1739155
1.1739156
1.1739156
1.1739156
1.1739155
1.1739155
1.1739155
1.1739156
1.1739155
1.1739156
1.1739156
1.1739156
1.1739156
1.1739156
1.1739156
1.1739156
1.1739155
1.1739156
1.1739156
1.1739155
1.1739156
1.1739159
1.1739161
1.1739159
1.1739159
1.1739161
1.1739163
1.173916
1.1739159
1.1739161
1.1739161
1.1739161
1.1739161
1.1739159
1.1739159
1.1739163
1.1739161
1.1739158
1.1739158
1.1739161
1.1739158
1.1739158
1.173916
1.1739162
1.1739164
1.1739165
1.173916
1.1739159
1.173916
1.1739159
1.173916
1.1739164
1.1739165
1.1739175
1.1739175
1.1739172
1.1739169
1.1739165
1.1739171
1.1739165
1.173917
1.1739178
1.1739185
1.1739177
1.1739182
1.1739185
1.1739185
1.1739182
1.1739173
1.1739169
1.1739162
1.173916
1.1739158
1.1739159
1.1739161
1.1739165
1.1739172
1.1739178
1.1739185
1.1739192
1.1739195
1.1739195
1.1739192
1.1739199
1.1739192
1.1739183
1.1739174
1.1739166
1.1739168
1.1739176
1.1739186
1.1739196
1.1739204
1.1739209
1.1739204
1.1739204
1.17392
1.1739192
1.1739183
1.1739178
1.173917
1.1739165
1.173916
1.1739158
1.1739159
1.1739157
1.1739157
1.1739158
1.1739154
1.1739155
1.1739155
1.1739154
1.1739155
1.1739153
1.1739154
1.1739153
1.1739153
1.1739154
1.1739155
1.1739154
1.1739153
1.1739152
1.1739153
1.1739154
1.1739153
1.1739154
1.1739154
1.1739154
1.1739155
1.1739155
1.1739154
1.1739155
1.1739155
1.1739155
1.1739155
1.1739154
1.1739155
1.1739155
1.1739154
1.1739158
1.1739159
1.1739157
1.1739157
1.173916
1.1739158
1.173916
1.1739161
1.1739166
1.1739166
1.1739172
1.1739166
1.173917
1.1739174
1.1739166
1.1739168
1.1739176
1.1739186
1.1739196
1.1739204
1.1739209
1.1739209
1.1739209
1.1739204
1.1739196
1.1739185
1.1739175
1.1739173
1.1739164
1.1739162
1.1739162
1.173916
1.173916
1.1739154
1.1739153
1.1739155
1.1739153
1.1739151
1.1739152
1.1739152
1.1739151
1.1739153
1.1739152
1.1739152
1.1739153
1.1739153
1.1739153
1.1739152
1.1739151
1.1739151
1.1739153
1.1739151
1.1739152
1.1739152
1.1739151
1.1739153
1.1739152
1.1739152
1.1739153
1.1739153
1.1739153
1.1739153
1.1739152
1.1739152
1.1739153
1.1739149
1.1739146
1.1739148
1.1739148
1.1739146
1.1739151
1.1739154
1.1739156
1.1739155
1.1739154
1.1739155
1.1739155
1.1739155
1.1739155
1.1739155
1.1739155
1.1739156
1.1739154
1.1739155
1.1739155
1.1739154
1.1739154
1.1739153
1.1739154
1.1739155
1.1739153
1.1739153
1.1739154
1.1739155
1.1739154
1.1739153
1.1739154
1.1739158
1.1739158
1.1739158
1.1739158
1.173916
1.173916
1.1739163
1.1739161
1.173916
1.1739159
1.173916
1.1739165
1.1739165
1.1739175
1.1739185
1.1739195
1.1739204
1.17392
1.1739204
1.1739204
1.1739199
1.1739192
1.1739183
1.1739178
1.1739186
1.1739192
1.1739196
1.1739196
1.1739192
1.1739185
1.1739192
1.1739182
1.1739173
1.1739164
1.1739162
1.1739169
1.1739177
1.1739172
1.1739178
1.1739183
1.1739186
1.1739186
1.1739183
1.1739178
1.173917
1.1739174
1.1739176
1.1739176
1.1739174
1.173917
1.1739166
1.1739161
1.1739165
1.173916
1.1739158
1.1739159
1.1739157
1.1739159
1.1739158
1.1739157
1.173916
1.173916
1.1739158
1.1739157
1.1739151
1.1739153
1.1739151
1.1739151
1.1739152
1.173916
1.1739159
1.1739162
1.1739163
1.1739158
1.173916
1.1739159
1.1739159
1.1739159
1.1739152
1.1739153
1.1739153
1.1739153
1.1739152
1.1739152
1.1739148
1.1739149
1.1739146
1.1739148
1.1739148
1.1739146
1.1739149
1.1739148
1.1739147
1.1739148
1.1739149
1.1739148
1.1739148
1.1739146
1.1739148
1.1739149
1.1739146
1.1739147
1.1739147
1.1739146
1.1739149
1.1739148
1.1739147
1.1739148
1.1739149
1.1739149
1.1739148
1.1739147
1.1739148
1.1739142
1.1739144
1.173914
1.1739142
1.1739142
1.173914
1.1739144
1.1739149
1.1739154
1.1739152
1.1739152
1.1739153
1.1739153
1.1739153
1.1739153
1.1739152
1.1739152
1.1739154
1.1739151
1.1739152
1.1739152
1.1739148
1.1739146
1.1739149
1.1739148
1.1739147
1.1739148
1.1739149
1.1739149
1.1739149
1.1739147
1.1739141
1.1739143
1.1739144
1.173914
1.1739142
1.1739142
1.173914
1.1739144
1.1739143
1.1739141
1.1739143
1.1739144
1.1739144
1.1739143
1.1739141
1.1739142
1.1739144
1.173914
1.1739142
1.1739142
1.173914
1.1739144
1.1739142
1.1739141
1.1739143
1.1739144
1.1739144
1.1739143
1.1739141
1.1739133
1.1739134
1.1739137
1.1739131
1.1739134
1.1739134
1.1739131
1.1739137
1.1739135
1.1739133
1.1739141
1.1739147
1.1739149
1.1739149
1.1739149
1.1739149
1.1739147
1.1739148
1.1739149
1.1739146
1.1739148
1.1739142
1.1739142
1.173914
1.1739144
1.1739143
1.1739141
1.1739143
1.1739144
1.1739144
1.1739144
1.1739136
1.1739133
1.1739135
1.1739137
1.1739132
1.1739134
1.1739134
1.1739132
1.1739137
1.1739135
1.1739133
1.1739136
1.1739137
1.1739137
1.1739136
1.1739133
1.1739135
1.1739137
1.1739131
1.1739134
1.1739134
1.1739131
1.1739137
1.1739135
1.1739133
1.1739136
1.1739136
1.1739136
1.1739136
1.1739125
1.1739121
1.1739123
1.1739126
1.1739119
1.1739122
1.1739122
1.1739119
1.1739127
1.1739124
1.1739121
1.1739125
1.1739136
1.1739143
1.1739144
1.1739144
1.1739143
1.1739141
1.1739143
1.1739144
1.173914
1.1739132
1.1739134
1.1739134
1.1739132
1.1739137
1.1739135
1.1739133
1.1739136
1.1739137
1.1739137
1.1739127
1.1739126
1.1739122
1.1739124
1.1739128
1.173912
1.1739123
1.1739123
1.173912
1.1739127
1.1739124
1.1739122
1.1739126
1.1739127
1.1739127
1.1739126
1.1739121
1.1739124
1.1739127
1.1739119
1.1739122
1.1739122
1.1739119
1.1739127
1.1739124
1.1739121
1.1739125
1.1739126
1.1739126
1.1739112
1.173911
1.1739105
1.1739108
1.1739112
1.1739102
1.1739107
1.1739107
1.1739102
1.1739112
1.1739108
1.1739105
1.1739111
1.1739112
1.1739126
1.1739137
1.1739137
1.1739136
1.1739133
1.1739135
1.1739137
1.1739127
1.1739119
1.1739123
1.1739123
1.173912
1.1739127
1.1739124
1.1739122
1.1739126
1.1739127
1.1739113
1.1739113
1.1739112
1.1739106
1.1739109
1.1739114
1.1739103
1.1739108
1.1739108
1.1739103
1.1739113
1.1739109
1.1739106
1.1739111
1.1739112
1.1739112
1.1739111
1.1739105
1.1739109
1.1739113
1.1739102
1.1739107
1.1739107
1.1739102
1.1739112
1.1739108
1.1739105
1.1739111
1.1739112
1.1739093
1.1739093
1.1739091
1.1739084
1.1739088
1.1739093
1.173908
1.1739087
1.1739087
1.1739081
1.1739094
1.1739088
1.1739084
1.1739091
1.1739093
1.1739093
1.1739112
1.1739126
1.1739126
1.1739121
1.1739124
1.1739109
1.1739113
1.1739103
1.1739108
1.1739108
1.1739103
1.1739113
1.1739109
1.1739106
1.1739112
1.1739093
1.1739094
1.1739094
1.1739093
1.1739085
1.173909
1.1739095
1.1739082
1.1739088
1.1739088
1.1739082
1.1739095
1.173909
1.1739085
1.1739092
1.1739094
1.1739094
1.1739092
1.1739084
1.1739089
1.1739094
1.1739081
1.1739087
1.1739087
1.1739081
1.1739094
1.1739088
1.1739084
1.1739091
1.1739067
1.1739069
1.1739069
1.1739067
1.1739058
1.1739064
1.173907
1.1739055
1.1739062
1.1739062
1.1739055
1.173907
1.1739064
1.1739058
1.1739068
1.173907
1.173907
1.1739068
1.1739092
1.1739111
1.1739105
1.1739084
1.1739089
1.1739094
1.1739082
1.1739088
1.1739088
1.1739082
1.1739095
1.173909
1.1739085
1.173906
1.1739069
1.1739071
1.1739071
1.1739069
1.173906
1.1739066
1.1739072
1.1739057
1.1739064
1.1739064
1.1739057
1.1739072
1.1739065
1.173906
1.1739069
1.173907
1.173907
1.1739068
1.1739059
1.1739065
1.1739071
1.1739056
1.1739063
1.1739063
1.1739055
1.1739071
1.1739064
1.1739058
1.173903
1.173904
1.1739042
1.1739042
1.173904
1.173903
1.1739037
1.1739044
1.1739027
1.1739036
1.1739036
1.1739027
1.1739044
1.1739037
1.173903
1.173904
1.1739043
1.1739043
1.1739041
1.1739031
1.1739059
1.1739065
1.1739071
1.1739056
1.1739064
1.1739064
1.1739056
1.1739072
1.1739066
1.1739039
1.1739032
1.1739042
1.1739045
1.1739045
1.1739042
1.1739033
1.1739039
1.1739047
1.173903
1.1739038
1.1739038
1.1739029
1.1739046
1.1739039
1.1739032
1.1739042
1.1739044
1.1739044
1.1739041
1.1739031
1.1739038
1.1739045
1.1739028
1.1739037
1.1739036
1.1739028
1.1739045
1.1739037
1.1739013
1.1739005
1.1739015
1.1739016
1.1739016
1.1739014
1.1739005
1.1739012
1.1739019
1.1739004
1.1739012
1.1739012
1.1739004
1.173902
1.1739012
1.1739005
1.1739015
1.1739017
1.1739017
1.1739015
1.1739006
1.1739014
1.1739038
1.1739046
1.1739029
1.1739037
1.1739038
1.1739029
1.1739046
1.1739022
1.1739015
1.1739008
1.1739017
1.1739019
1.1739019
1.1739017
1.1739008
1.1739015
1.1739022
1.1739006
1.1739015
1.1739015
1.1739006
1.1739022
1.1739014
1.1739007
1.1739016
1.1739018
1.1739018
1.1739016
1.1739006
1.1739013
1.173902
1.1739005
1.1739013
1.1739013
1.1739004
1.173902
1.1739004
1.1738998
1.1738991
1.1738997
1.1738998
1.1738998
1.1738997
1.1738991
1.1738997
1.1739003
1.1738991
1.1738999
1.1738999
1.1738991
1.1739003
1.1738997
1.1738991
1.1738998
1.1738998
1.1738998
1.1738998
1.1738992
1.1738999
1.1739005
1.1739021
1.1739005
1.1739014
1.1739014
1.1739006
1.1738994
1.1739006
1.1739
1.1738993
1.1739
1.1739001
1.1739001
1.1739
1.1738994
1.1739
1.1739006
1.1738994
1.1739001
1.1739001
1.1738994
1.1739005
1.1738999
1.1738993
1.1738999
1.1738999
1.1738999
1.1738999
1.1738992
1.1738998
1.1739004
1.1738992
1.1739
1.1738999
1.1738992
1.1739
1.1739006
1.1739002
1.1738998
1.1739001
1.1739
1.1739
1.1739001
1.1738997
1.1739002
1.1739005
1.1738999
1.1739004
1.1739004
1.1738999
1.1739005
1.1739002
1.1738998
1.1739001
1.1739
1.1739001
1.1739002
1.1738999
1.1739004
1.1739007
1.1739001
1.1738993
1.1739001
1.1739001
1.1739007
1.1739002
1.1739008
1.1739005
1.1739001
1.1739004
1.1739003
1.1739003
1.1739004
1.1739001
1.1739005
1.1739009
1.1739002
1.1739007
1.1739007
1.1739002
1.1739008
1.1739004
1.1739
1.1739003
1.1739002
1.1739001
1.1739002
1.1738999
1.1739003
1.1739006
1.1739
1.1739005
1.1739005
1.1739035
1.1739032
1.1739033
1.1739032
1.1739031
1.1739031
1.173903
1.1739029
1.173903
1.173903
1.1739032
1.1739032
1.1739032
1.1739034
1.1739034
1.1739032
1.1739033
1.1739032
1.1739031
1.1739031
1.173903
1.173903
1.1739032
1.1739032
1.1739034
1.1739035
1.1739034
1.1739036
1.1739007
1.1739016
1.1739004
1.1739016
1.1739013
1.1738998
1.1739016
1.1739007
1.1739005
1.1739005
1.1739007
1.1739016
1.1739031
1.1739034
1.1739035
1.1739036
1.1739035
1.1739037
1.1739037
1.1739034
1.1739035
1.1739034
1.1739033
1.1739033
1.1739031
1.1739031
1.1739032
1.1739032
1.1739033
1.1739034
1.1739032
1.1739035
1.1739082
1.1739082
1.1739083
1.1739079
1.173908
1.1739081
1.1739079
1.1739078
1.1739078
1.1739079
1.1739081
1.173908
1.1739078
1.1739082
1.1739082
1.1739082
1.1739082
1.1739079
1.173908
1.1739082
1.1739079
1.1739079
1.1739079
1.173908
1.1739083
1.1739082
1.1739081
1.1739085
1.1739084
1.1739085
1.1739037
1.1739034
1.1739036
1.1739035
1.1739034
1.1739034
1.1739033
1.1739033
1.1739034
1.1739082
1.1739084
1.1739083
1.1739081
1.1739085
1.1739084
1.1739084
1.1739085
1.1739081
1.1739082
1.1739083
1.1739081
1.1739079
1.1739079
1.173908
1.1739082
1.1739081
1.1739079
1.1739083
1.1739144
1.1739141
1.173914
1.1739143
1.1739136
1.1739138
1.1739142
1.1739137
1.1739136
1.1739136
1.1739137
1.1739142
1.1739139
1.1739135
1.1739143
1.1739141
1.173914
1.1739144
1.1739136
1.1739139
1.1739143
1.1739138
1.1739137
1.1739137
1.1739139
1.1739144
1.173914
1.1739138
1.1739145
1.1739142
1.1739143
1.1739145
1.1739085
1.1739081
1.1739083
1.1739084
1.1739082
1.1739081
1.1739081
1.1739139
1.173914
1.1739145
1.1739141
1.1739138
1.1739145
1.1739142
1.1739142
1.1739145
1.1739138
1.173914
1.1739144
1.1739139
1.1739137
1.1739137
1.1739138
1.1739143
1.1739139
1.1739136
1.1739199
1.173921
1.1739205
1.1739205
1.173921
1.1739199
1.1739203
1.1739209
1.1739202
1.17392
1.17392
1.1739202
1.1739209
1.1739204
1.1739199
1.1739211
1.1739206
1.1739206
1.1739211
1.17392
1.1739204
1.173921
1.1739203
1.1739201
1.1739202
1.1739204
1.1739211
1.1739205
1.1739201
1.1739212
1.1739206
1.1739207
1.1739211
1.1739201
1.1739138
1.1739141
1.1739145
1.173914
1.1739139
1.1739202
1.1739202
1.1739204
1.173921
1.1739205
1.1739201
1.1739211
1.1739206
1.1739206
1.1739211
1.17392
1.1739204
1.173921
1.1739203
1.1739201
1.1739201
1.1739203
1.173921
1.1739204
1.1739273
1.1739268
1.173928
1.1739274
1.1739274
1.173928
1.1739268
1.1739273
1.173928
1.1739273
1.1739271
1.1739271
1.1739273
1.1739281
1.1739274
1.1739269
1.1739281
1.1739275
1.1739275
1.1739282
1.1739269
1.1739274
1.1739282
1.1739274
1.1739273
1.1739273
1.1739274
1.1739282
1.1739273
1.1739269
1.1739281
1.1739274
1.1739275
1.173928
1.1739268
1.1739273
1.1739205
1.1739211
1.1739204
1.1739273
1.1739271
1.1739271
1.1739273
1.173928
1.1739273
1.1739268
1.1739279
1.1739274
1.1739274
1.173928
1.1739268
1.1739273
1.173928
1.1739273
1.1739272
1.1739271
1.1739273
1.173928
1.1739348
1.173934
1.1739335
1.1739347
1.1739341
1.1739341
1.1739348
1.1739335
1.173934
1.1739349
1.1739341
1.1739341
1.1739341
1.1739342
1.173935
1.1739342
1.1739336
1.1739349
1.1739342
1.1739342
1.1739349
1.1739337
1.1739342
1.173935
1.1739343
1.1739341
1.1739341
1.1739342
1.1739349
1.173934
1.1739335
1.1739347
1.1739339
1.173934
1.1739345
1.1739334
1.1739339
1.1739346
1.173928
1.173924
1.1739235
1.173923
1.173923
1.1739235
1.1739239
1.1739307
1.1739346
1.1739338
1.1739333
1.1739345
1.1739339
1.1739339
1.1739346
1.1739334
1.1739339
1.1739347
1.173934
1.173934
1.173934
1.1739341
1.1739399
1.1739406
1.1739398
1.1739393
1.1739405
1.1739399
1.1739399
1.1739405
1.1739394
1.1739398
1.1739407
1.17394
1.1739399
1.17394
1.1739401
1.1739408
1.17394
1.1739395
1.1739407
1.1739401
1.1739401
1.1739407
1.1739395
1.17394
1.1739408
1.1739401
1.17394
1.1739399
1.1739399
1.1739406
1.1739397
1.1739393
1.1739403
1.1739396
1.1739396
1.1739402
1.1739391
1.1739395
1.1739402
1.1739395
1.1739339
1.1739338
1.1739338
1.1739339
1.1739395
1.1739402
1.1739394
1.173939
1.1739401
1.1739396
1.1739395
1.1739402
1.1739392
1.1739396
1.1739404
1.1739398
1.1739397
1.1739398
1.1739446
1.1739447
1.1739454
1.1739446
1.1739443
1.1739453
1.1739448
1.1739448
1.1739454
1.1739443
1.1739447
1.1739455
1.1739449
1.1739448
1.1739449
1.1739449
1.1739456
1.1739449
1.1739445
1.1739456
1.173945
1.173945
1.1739456
1.1739445
1.1739449
1.1739456
1.1739449
1.1739448
1.1739448
1.1739447
1.1739454
1.1739445
1.1739441
1.1739451
1.1739444
1.1739444
1.1739449
1.1739439
1.1739442
1.1739449
1.1739443
1.1739442
1.1739395
1.1739395
1.1739442
1.1739443
1.1739449
1.1739442
1.1739438
1.1739448
1.1739444
1.1739443
1.173945
1.173944
1.1739443
1.1739452
1.1739446
1.1739446
1.1739487
1.1739488
1.1739489
1.1739495
1.1739488
1.1739485
1.1739495
1.173949
1.173949
1.1739495
1.1739486
1.1739489
1.1739497
1.1739491
1.173949
1.1739491
1.1739491
1.1739498
1.1739491
1.1739487
1.1739497
1.1739492
1.1739492
1.1739497
1.1739487
1.1739491
1.1739498
1.1739491
1.173949
1.173949
1.1739489
1.1739495
1.1739486
1.1739483
1.1739492
1.1739486
1.1739486
1.173949
1.173948
1.1739483
1.173949
1.1739484
1.1739483
1.1739483
1.1739484
1.173949
1.1739483
1.173948
1.1739489
1.1739485
1.1739485
1.1739491
1.1739482
1.1739485
1.1739493
1.1739487
1.1739523
1.1739523
1.1739523
1.1739524
1.173953
1.1739524
1.1739521
1.173953
1.1739526
1.1739526
1.173953
1.1739522
1.1739525
1.1739532
1.1739526
1.1739526
1.1739526
1.1739527
1.1739533
1.1739526
1.1739523
1.1739532
1.1739528
1.1739528
1.1739532
1.1739523
1.1739526
1.1739532
1.1739527
1.1739526
1.1739525
1.1739524
1.173953
1.1739522
1.1739519
1.1739527
1.1739521
1.1739522
1.1739525
1.1739516
1.1739519
1.1739525
1.1739519
1.1739519
1.1739519
1.1739519
1.1739524
1.1739519
1.1739516
1.1739524
1.1739521
1.1739521
1.1739526
1.1739518
1.173952
1.1739528
1.1739557
1.1739552
1.1739552
1.1739552
1.1739553
1.1739559
1.1739553
1.1739551
1.1739559
1.1739555
1.1739555
1.173956
1.1739552
1.1739554
1.1739561
1.1739555
1.1739555
1.1739556
1.1739556
1.1739561
1.1739556
1.1739553
1.1739561
1.1739557
1.1739557
1.1739561
1.1739553
1.1739556
1.1739561
1.1739556
1.1739555
1.1739554
1.1739554
1.1739559
1.1739551
1.1739549
1.1739556
1.1739551
1.1739551
1.1739554
1.1739546
1.1739548
1.1739554
1.1739549
1.1739548
1.1739548
1.1739549
1.1739554
1.1739548
1.1739546
1.1739554
1.1739551
1.1739551
1.1739555
1.1739548
1.173955
1.1739574
1.173958
1.1739575
1.1739575
1.1739576
1.1739576
1.1739582
1.1739577
1.1739575
1.1739583
1.173958
1.173958
1.1739584
1.1739576
1.1739579
1.1739584
1.1739579
1.1739579
1.1739579
1.173958
1.1739585
1.173958
1.1739577
1.1739585
1.1739582
1.1739581
1.1739585
1.1739577
1.173958
1.1739585
1.1739579
1.1739578
1.1739578
1.1739578
1.1739582
1.1739576
1.1739574
1.173958
1.1739576
1.1739576
1.1739578
1.1739571
1.1739573
1.1739578
1.1739573
1.1739573
1.1739573
1.1739573
1.1739578
1.1739573
1.1739571
1.1739578
1.1739576
1.1739575
1.1739579
1.1739573
1.1739592
1.1739593
1.1739598
1.1739594
1.1739594
1.1739594
1.1739595
1.17396
1.1739596
1.1739595
1.1739602
1.1739599
1.1739599
1.1739603
1.1739596
1.1739598
1.1739603
1.1739598
1.1739597
1.1739597
1.1739598
1.1739603
1.1739599
1.1739597
1.1739604
1.1739601
1.1739601
1.1739604
1.1739597
1.1739599
1.1739603
1.1739598
1.1739597
1.1739596
1.1739596
1.1739602
1.1739596
1.1739594
1.17396
1.1739596
1.1739596
1.1739598
1.1739591
1.1739593
1.1739597
1.1739593
1.1739592
1.1739592
1.1739592
1.1739597
1.1739594
1.1739591
1.1739598
1.1739596
1.1739596
1.1739599
1.1739616
1.1739608
1.1739608
1.1739611
1.1739607
1.1739608
1.1739608
1.1739608
1.1739612
1.173961
1.173961
1.1739618
1.1739615
1.1739615
1.1739619
1.1739612
1.1739614
1.1739617
1.1739612
1.1739612
1.1739612
1.1739613
1.1739618
1.1739615
1.1739613
1.173962
1.1739617
1.1739617
1.173962
1.1739613
1.1739615
1.1739618
1.1739612
1.1739611
1.1739611
1.1739611
1.1739616
1.1739612
1.1739611
1.1739617
1.1739613
1.1739613
1.1739615
1.1739609
1.173961
1.1739613
1.173961
1.1739608
1.1739608
1.1739608
1.1739613
1.173961
1.1739609
1.1739616
1.1739613
1.1739612
1.1739621
1.1739625
1.1739618
1.1739617
1.1739621
1.1739617
1.1739618
1.1739618
1.1739617
1.1739621
1.1739619
1.1739619
1.1739627
1.1739623
1.1739623
1.1739627
1.173962
1.1739623
1.1739625
1.1739619
1.1739619
1.1739619
1.173962
1.1739625
1.1739623
1.173962
1.1739628
1.1739624
1.1739624
1.1739628
1.1739621
1.1739623
1.1739625
1.173962
1.1739619
1.1739618
1.1739619
1.1739624
1.1739622
1.1739619
1.1739625
1.1739621
1.1739621
1.1739624
1.1739617
1.1739619
1.1739621
1.1739618
1.1739617
1.1739616
1.1739617
1.1739622
1.173962
1.1739618
1.1739624
1.1739621
1.1739629
1.1739629
1.1739629
1.1739623
1.1739625
1.1739623
1.1739623
1.1739623
1.1739624
1.1739626
1.1739624
1.173963
1.1739631
1.1739631
1.1739631
1.1739625
1.1739628
1.1739629
1.1739625
1.1739626
1.1739626
1.1739625
1.1739629
1.1739629
1.1739625
1.1739631
1.1739632
1.1739632
1.1739631
1.1739626
1.1739629
1.1739629
1.1739625
1.1739626
1.1739625
1.1739625
1.1739628
1.1739627
1.1739624
1.1739629
1.1739629
1.1739629
1.1739629
1.1739623
1.1739629
1.173963
1.1739625
1.1739623
1.1739624
1.1739623
1.1739627
1.1739626
1.1739623
1.1739629
1.1739625
1.1739624
1.1739615
1.1739603
1.1739587
1.1739572
1.1739562
1.1739563
1.1739575
1.1739589
1.1739604
1.1739616
1.1739625
1.1739625
1.1739614
1.1739604
1.1739583
1.1739546
1.1739523
1.1739504
1.1739502
1.173952
1.1739543
1.1739582
1.1739604
1.1739613
1.1739625
1.1739624
1.1739617
1.1739618
1.1739612
1.1739615
1.1739607
1.1739611
1.1739609
1.1739607
1.1739609
1.1739607
1.1739616
1.1739619
1.1739616
1.1739609
1.1739612
1.1739603
1.1739613
1.1739611
1.1739602
1.1739598
1.17396
1.1739609
1.1739612
1.1739614
1.1739625
1.1739624
1.1739616
1.1739619
1.1739612
1.1739607
1.1739609
1.1739609
1.1739617
1.1739604
1.1739602
1.1739604
1.1739599
1.1739601
1.1739606
1.1739609
1.1739619
1.1739626
1.1739624
1.1739616
1.1739608
1.1739597
1.1739595
1.17396
1.1739609
1.1739608
1.173962
1.1739612
1.1739613
1.1739613
1.1739622
1.173962
1.1739612
1.1739603
1.1739602
1.1739602
1.1739611
1.1739615
1.1739609
1.1739602
1.1739591
1.1739592
1.1739589
1.1739592
1.1739598
1.1739595
1.1739598
1.173958
1.1739558
1.1739554
1.1739558
1.173958
1.1739576
1.1739558
1.1739573
1.1739551
1.1739549
1.1739553
1.1739575
1.1739572
1.173955
1.1739546
1.1739568
1.1739587
1.1739599
1.1739581
1.1739589
1.17396
1.1739567
1.173959
1.1739577
1.1739555
1.1739533
1.1739576
1.173957
1.1739515
1.1739527
1.1739544
1.1739433
1.1739503
1.1739559
1.1739591
1.1739603
1.1739591
1.1739577
1.1739556
1.1739588
1.1739591
1.1739601
1.1739623
1.1739624
1.1739625
1.1739625
1.1739625
1.1739624
1.1739602
1.1739603
1.17396
1.17396
1.1739602
1.1739589
1.1739586
1.1739572
1.1739576
1.1739593
1.1739608
1.1739579
1.1739527
1.1739378
1.1739352
1.1739342
1.1739341
1.1739351
1.1739377
1.1739411
1.1739446
1.1739497
1.1739497
1.1739447
1.1739411
1.1739379
1.1739353
1.1739345
1.1739345
1.1739353
1.1739379
1.1739411
1.1739446
1.1739496
1.1739497
1.1739543
1.1739588
1.1739613
1.1739622
1.1739624
1.1739615
1.1739614
1.1739613
1.1739614
1.1739624
1.1739621
1.1739612
1.1739588
1.1739544
1.1739499
1.1739496
1.1739449
1.1739413
1.173938
1.1739354
1.1739346
1.1739345
1.1739353
1.1739378
1.173941
1.1739446
1.1739495
1.1739497
1.1739446
1.1739412
1.1739378
1.1739334
1.1739341
1.1739439
1.1739578
1.173968
1.1739678
1.1739574
1.1739434
1.1739339
1.1739334
1.173938
1.1739414
1.1739521
1.1739573
1.1739603
1.1739599
1.1739562
1.1739503
1.1739355
1.1739381
1.173936
1.1739347
1.1739431
1.1739584
1.1739711
1.1739849
1.1739976
1.1740076
1.1740135
1.1740136
1.1740079
1.1739982
1.1739856
1.1739719
1.1739591
1.1739437
1.1739718
1.173992
1.1740111
1.1740284
1.1740418
1.1740491
1.174049
1.1740414
1.1740277
1.1740103
1.173991
1.1739708
1.1739845
1.1739566
1.1739376
1.1739342
1.1739343
1.1739346
1.1739346
1.1739503
1.1739562
1.1739599
1.1739604
1.1739572
1.173952
1.1739379
1.1739354
1.1739342
1.1739343
1.1739403
1.1739402
1.1739666
1.1740068
1.1739969
1.1740273
1.17401
1.1740341
1.1740558
1.1740732
1.1740829
1.174083
1.1740736
1.1740565
1.1740351
1.1740112
1.1739856
1.1739575
1.1739983
1.1740287
1.1740568
1.1740827
1.1741035
1.174115
1.1741149
1.1741031
1.174082
1.1740557
1.174073
1.1740409
1.1740485
1.1740126
1.1740127
1.1739667
1.1740071
1.1740414
1.1740487
1.1740829
1.1740827
1.1741149
1.174103
1.1741276
1.1741415
1.1741416
1.1741281
1.1741039
1.1740742
1.1740424
1.1740083
1.1739678
1.1740141
1.17405
1.1740839
1.1741157
1.1741421
1.1741571
1.1741569
1.1741416
1.1741419
1.1741152
1.1741038
1.1740736
1.1740565
1.174028
1.1739974
1.1739568
1.1739376
1.1739346
1.1739358
1.1739377
1.1739411
1.1739446
1.173942
1.1739366
1.1739331
1.1739336
1.1739431
1.1739711
1.1739849
1.1740107
1.1740349
1.1740567
1.1740829
1.1741041
1.1741284
1.1741423
1.1741572
1.1741574
1.1741423
1.174116
1.1740841
1.1740501
1.1740142
1.1739678
1.1740084
1.1740427
1.1740746
1.1741045
1.1741288
1.1741424
1.1741161
1.1741159
1.1740838
1.1740742
1.174042
1.1740283
1.1740108
1.1739914
1.1739712
1.1739584
1.1739431
1.1739569
1.1739851
1.1739978
1.1740077
1.1740135
1.1740496
1.1740496
1.1740839
1.1740744
1.1741044
1.1740835
1.1740573
1.174029
1.1739984
1.1739574
1.1739857
1.1740115
1.1740355
1.1740572
1.1740286
1.1740422
1.1740078
1.1740135
1.173967
1.173967
1.1739402
1.1739375
1.1739345
1.1739331
1.1739376
1.173942
1.1739467
1.1739362
1.1739341
1.1739184
1.1739187
1.1739079
1.1739092
1.1739095
1.1739082
1.1739193
1.1739194
1.1739349
1.1739448
1.1739422
1.1739468
1.1739423
1.173938
1.173936
1.1739344
1.1739346
1.1739346
1.1739344
1.1739359
1.1739378
1.1739421
1.1739466
1.173942
1.1739368
1.1739334
1.1739349
1.1739383
1.1739411
1.173941
1.1739381
1.1739348
1.1739334
1.1739369
1.1739372
1.173935
1.1739199
1.1739198
1.1739092
1.1739107
1.1739106
1.1739093
1.1739198
1.1739197
1.173935
1.1739372
1.1739417
1.1739347
1.1739372
1.1739293
1.1739278
1.1739341
1.1739341
1.173924
1.1739384
1.1739557
1.1739467
1.1739346
1.173927
1.1739294
1.1739194
1.1739278
1.1739193
1.1739359
1.1739348
1.1739378
1.1739341
1.1739341
1.1739405
1.1739405
1.1739341
1.173934
1.1739377
1.1739345
1.1739433
1.1739587
1.1739715
1.1739853
1.173998
1.1739569
1.1739431
1.1739336
1.1739331
1.1739376
1.1739357
1.1739187
1.173908
1.1739092
1.1739095
1.1739083
1.1739238
1.1739339
1.1739342
1.1739345
1.1739515
1.1739346
1.1739465
1.1739536
1.173963
1.17398
1.1739629
1.1739536
1.1739795
1.1739946
1.1739635
1.1739738
1.1739858
1.1739795
1.1739775
1.1740131
1.1740146
1.1739978
1.1740219
1.1739979
1.1739738
1.1739464
1.1739635
1.1739776
1.1739946
1.1740135
1.1739796
1.1739858
1.1740149
1.1740281
1.1739943
1.1739555
1.1739384
1.1739383
1.1739236
1.1739339
1.1739339
1.1739274
1.1739187
1.173929
1.1739264
1.1739341
1.1739463
1.1739555
1.1740004
1.1740004
1.1739955
1.1739878
1.1740007
1.1740256
1.174034
1.1740357
1.1740723
1.1740623
1.1740445
1.1740457
1.1740201
1.1740453
1.1740442
1.174072
1.1740742
1.1740969
1.174063
1.1740251
1.1739876
1.1739941
1.174
1.173995
1.1740002
1.174033
1.1740349
1.1740276
1.1740617
1.1740714
1.1740737
1.1741099
1.1741059
1.1740937
1.1741198
1.1740941
1.1740973
1.1740637
1.1740748
1.1741107
1.1741066
1.1741346
1.1741405
1.1741246
1.17414
1.1741341
1.1741501
1.1741574
1.1741597
1.1741411
1.1741094
1.1740699
1.1740591
1.1740411
1.1740158
1.1740135
1.1740391
1.1740707
1.1740393
1.1740413
1.1740722
1.1740958
1.174096
1.1740589
1.1740705
1.1741105
1.1741108
1.1740649
1.1739967
1.1739376
1.1739307
1.1739193
1.1739196
1.1739297
1.1739332
1.1739456
1.1739542
1.173954
1.173924
1.1739383
1.1739338
1.173934
1.1739279
1.1739294
1.1739268
1.1739343
1.1739463
1.1739555
1.1739999
1.1739949
1.174
1.1739873
1.1739938
1.1740272
1.1740348
1.1740329
1.1740247
1.1740126
1.1739791
1.1739853
1.1739733
1.173963
1.173977
1.1739939
1.1739971
1.174014
1.1740436
1.1740613
1.1740713
1.1740736
1.1740626
1.1740965
1.1741097
1.1741057
1.1740933
1.1740713
1.1740736
1.1740447
1.1740194
1.1740211
1.1740436
1.1740448
1.1740628
1.1740966
1.1741242
1.1741398
1.174134
1.1741193
1.1741341
1.1741499
1.1741572
1.17414
1.17411
1.1741059
1.1740933
1.1740613
1.1740714
1.1740739
1.174033
1.1740246
1.1740126
1.1739938
1.1739788
1.173953
1.1739624
1.1739509
1.1739341
1.1739341
1.173946
1.1739529
1.1739622
1.1739793
1.1739969
1.1739729
1.1739458
1.1739627
1.1739769
1.1739787
1.1739848
1.1740138
1.174027
1.1739932
1.1739549
1.1739868
1.174
1.1739945
1.1739992
1.1740345
1.1740347
1.1740716
1.1741062
1.1741344
1.1741502
1.1741504
1.1741349
1.1741069
1.1740725
1.1740358
1.174034
1.1739954
1.1740009
1.173988
1.1739944
1.1740284
1.174026
1.1740139
1.1739797
1.173986
1.1740152
1.1739982
1.1739739
1.1739637
1.173978
1.1739951
1.1740209
1.1740464
1.1740642
1.174075
1.174111
1.174098
1.1740947
1.1740627
1.174045
1.1740728
1.1740753
1.1740464
1.174045
1.1740225
1.173998
1.1740113
1.1739919
1.1739716
1.1739628
1.1739534
1.1739464
1.1739798
1.1739801
1.1739628
1.1739341
1.1739513
1.1739343
1.1739535
1.1739636
1.173995
1.173978
1.1740139
1.174015
1.1739857
1.1739461
1.1739737
1.1739797
1.173988
1.1740259
1.1740643
1.1740982
1.1741255
1.1741408
1.1741577
1.174141
1.174135
1.1741205
1.1740947
1.174107
1.1741113
1.1740752
1.1740725
1.1740627
1.1740282
1.1740356
1.1740341
1.1740012
1.1739955
1.1739552
1.1739941
1.1740001
1.1740001
1.1740356
1.1740725
1.174107
1.1741349
1.1741409
1.1741576
1.1741404
1.1741252
1.1741202
1.1740941
1.1740976
1.1741104
1.1740742
1.1740635
1.1740619
1.1740444
1.1740724
1.1740945
1.1740979
1.1741112
1.1740752
1.1740641
1.1740625
1.1740447
1.1740462
1.1740749
1.1740459
1.1740206
1.174022
1.1739976
1.1740145
1.1740275
1.1740252
1.1740331
1.1740004
1.1739946
1.173955
1.1739994
1.1739935
1.1739872
1.1739791
1.1740133
1.1739777
1.1739948
1.1739633
1.1739461
1.1739853
1.1739734
1.1739625
1.1739798
1.1739977
1.1740148
1.174028
1.1740258
1.1740341
1.1740012
1.1739955
1.1739552
1.173994
1.1739879
1.1739797
1.1740137
1.1739779
1.1739948
1.1739635
1.1739461
1.1739856
1.1739735
1.1739626
1.1739341
1.1739534
1.1739795
1.1739464
1.1739532
1.1739341
1.1739511
1.1739342
1.1739264
1.1739295
1.1739328
1.1739454
1.1739538
1.1739536
1.1739451
1.1739327
1.1739296
1.1739329
1.1739453
1.1739305
1.1739375
1.1739965
1.1739715
1.1739635
1.1739326
1.1739144
1.1739391
1.1739516
1.1739572
1.1739588
1.1739599
1.1739585
1.1739595
1.1739579
1.1739592
1.1739593
1.173959
1.1739592
1.1739577
1.1739557
1.1739535
1.1739547
1.1739529
1.1739387
1.1739385
1.173939
1.1739439
1.17395
1.1739553
1.1739501
1.1739504
1.1739546
1.173959
1.1739612
1.1739602
1.173957
1.1739549
1.1739535
1.1739518
1.1739534
1.1739571
1.1739512
1.1739512
1.1739571
1.1739607
1.1739607
1.1739589
1.1739589
1.1739572
1.1739587
1.173959
1.1739576
1.1739593
1.1739609
1.1739579
1.1739526
1.1739546
1.173959
1.1739612
1.1739614
1.1739605
1.1739583
1.1739543
1.173952
1.1739502
1.1739502
1.173952
1.1739543
1.1739582
1.1739605
1.1739615
1.1739627
1.1739626
1.1739617
1.1739605
1.1739588
1.1739572
1.1739562
1.1739562
1.1739572
1.1739588
1.1739604
1.1739616
1.1739625
1.1739626
1.1739619
1.1739617
1.1739611
1.1739611
1.1739617
1.1739608
1.1739614
1.17396
1.1739593
1.1739589
1.1739592
1.1739575
1.1739573
1.1739569
1.1739569
1.1739572
1.1739574
1.1739553
1.1739528
1.1739496
1.1739494
1.1739494
1.17395
1.1739532
1.1739527
1.1739531
1.17395
1.1739496
1.173948
1.1739493
1.1739525
1.1739523
1.1739526
1.1739495
1.1739492
1.1739524
1.173952
1.1739488
1.173948
1.1739483
1.1739492
1.1739466
1.1739495
1.1739511
1.1739536
1.1739519
1.1739539
1.173957
1.1739558
1.1739537
1.1739533
1.1739552
1.1739498
1.1739516
1.1739498
1.1739481
1.1739462
1.1739509
1.1739513
1.1739478
1.1739453
1.173944
1.1739354
1.1739406
1.1739444
1.1739472
1.173948
1.1739511
1.1739525
1.1739552
1.1739573
1.1739558
1.1739537
1.1739519
1.173955
1.1739571
1.1739539
1.1739516
1.1739558
1.1739538