/*--------------------------------*- C++ -*----------------------------------*\
  =========                 |
  \\      /  F ield         | OpenFOAM: The Open Source CFD Toolbox
   \\    /   O peration     | Website:  https://openfoam.org
    \\  /    A nd           | Version:  7
     \\/     M anipulation  |
\*---------------------------------------------------------------------------*/
FoamFile
{
    version     2.0;
    format      ascii;
    class       volScalarField;
    location    "310";
    object      alphat;
}
// * * * * * * * * * * * * * * * * * * * * * * * * * * * * * * * * * * * * * //

dimensions      [1 -1 -1 0 0 0 0];

internalField   nonuniform List<scalar> 
24789
(
0.0014199022
0.0072803452
0.017667013
0.03033781
0.39619764
0.39832415
0.030521856
0.017777616
0.0073240033
0.0014227988
0.0014257975
0.0073691448
0.017891745
0.030711521
0.40052582
0.40280193
0.030906488
0.018008948
0.0074155214
0.0014288898
0.0014320938
0.0074633954
0.018129658
0.031107019
0.40515234
0.40758175
0.031313217
0.018253695
0.0075126143
0.0014354023
0.0014388336
0.0075634038
0.018381408
0.031525288
0.41009113
0.41268582
0.031743498
0.018512729
0.0076156511
0.0014423842
0.0014460735
0.0076695541
0.01864795
0.031968018
0.41536896
0.41814686
0.032199072
0.018787022
0.0077250228
0.0014499008
0.0014538854
0.0077822469
0.018930279
0.032436994
0.42102356
0.42400786
0.032682112
0.019077758
0.0078411759
0.001458033
0.0014623672
0.0079020114
0.019229845
0.032934916
0.42710658
0.43033015
0.033195719
0.019386595
0.0079647275
0.001466896
0.0014716443
0.0080295048
0.019548372
0.033465008
0.4336876
0.43719128
0.033743313
0.019715359
0.0080963634
0.0014766253
0.001481867
0.0081654798
0.019887966
0.034031263
0.44085307
0.44468852
0.034329358
0.020066359
0.0082368773
0.0014873876
0.0014932204
0.0083107185
0.020250943
0.034638257
0.44871339
0.45294766
0.034958629
0.020441932
0.0083870085
0.0014993914
0.0015059417
0.008465827
0.020639653
0.035291182
0.45741411
0.46214321
0.035636622
0.02084427
0.0085471289
0.0015129152
0.0015203741
0.008630886
0.021056021
0.035995725
0.46717222
0.47255204
0.036369245
0.021274943
0.0087169342
0.0015283899
0.0015370626
0.0088050416
0.02150106
0.036757992
0.47834906
0.4846554
0.037162385
0.021733991
0.0088947823
0.0015465124
0.0015569045
0.0089855924
0.02197295
0.037582198
0.49159738
0.49934932
0.038015792
0.022216233
0.0090765357
0.0015684776
0.0015815742
0.009166209
0.022461566
0.038459646
0.50814534
0.5183695
0.038913147
0.022709112
0.0092542203
0.0015967844
0.0016161959
0.0093497197
0.022969553
0.039401618
0.53076906
0.54646478
0.040050417
0.023309136
0.0094754764
0.0016434878
0.0016761822
0.0096136544
0.02386898
0.04111397
0.56719702
0.60336014
0.043665789
0.025467177
0.010293545
0.0017313747
0.0017644281
0.010635401
0.026114769
0.044435488
0.62885482
0.64945174
0.047405992
0.027814689
0.011292497
0.0017999555
0.0017922524
0.011860065
0.029580252
0.050847331
0.65025138
0.69239138
0.043567244
0.026115124
0.010753193
0.001756083
0.0017178597
0.010268444
0.025049741
0.04232333
0.68270326
0.65668702
0.038538252
0.022744334
0.0092724587
0.0016518092
0.0016037326
0.0088652312
0.02164385
0.036778585
0.62974321
0.61155558
0.035995763
0.021182096
0.0087142579
0.0015698544
0.0015443376
0.0085991975
0.020904448
0.035508688
0.5961588
0.5831309
0.035119625
0.020689113
0.0085140069
0.0015260895
0.001511664
0.0084377436
0.02048387
0.03474646
0.57198678
0.56215791
0.03436785
0.020273824
0.0083602306
0.0014993857
0.0014885628
0.0082796042
0.020058904
0.033986771
0.55334949
0.5453702
0.033609579
0.019842606
0.0081971468
0.0014788077
0.0014699021
0.0081145041
0.019628661
0.033241357
0.53807166
0.53134223
0.032885098
0.019419509
0.0080328144
0.0014617101
0.0014541354
0.0079528013
0.019216362
0.032541774
0.52509387
0.51925878
0.032211543
0.019019755
0.0078748818
0.0014470954
0.0014405268
0.0077992857
0.018829805
0.031893903
0.5137821
0.50862171
0.031588442
0.018646472
0.0077260984
0.0014343743
0.0014285952
0.0076553444
0.018469545
0.031294405
0.50374276
0.49911721
0.031011306
0.018298801
0.0075869734
0.0014231513
0.001418014
0.0075209125
0.018133877
0.030738227
0.49472045
0.49053349
0.030474852
0.017974539
0.0074570528
0.0014131515
0.001408544
0.0073953149
0.017820408
0.030220286
0.4865361
0.48271398
0.029974313
0.01767127
0.0073355514
0.0014041646
0.0013999969
0.0072777032
0.017526735
0.02973598
0.47905052
0.47553519
0.029505276
0.017386656
0.0072216227
0.0013960185
0.0013922145
0.0071672699
0.017250703
0.029281356
0.47215444
0.4689012
0.029064407
0.01711885
0.0071145556
0.0013885677
0.0013850679
0.0070634402
0.016990758
0.028853523
0.46576452
0.46273803
0.02864901
0.016866442
0.0070138448
0.0013816993
0.0013784577
0.0069657547
0.016745623
0.028450044
0.45981634
0.45699289
0.028257025
0.016628321
0.0069190726
0.0013753277
0.0013723088
0.0068738115
0.016514274
0.028069101
0.45426157
0.45162014
0.027886758
0.016403516
0.0068298587
0.001369388
0.0013665678
0.0067872513
0.016295807
0.027709112
0.44906269
0.44659126
0.027536791
0.016191176
0.0067458457
0.0013638359
0.0013611913
0.0067058252
0.016089655
0.027369183
0.44420534
0.44672362
0.02754279
0.016194715
0.0067472292
0.0013639057
0.0013666438
0.0067886191
0.016299298
0.027714993
0.44918555
0.45174534
0.027892637
0.016407043
0.0068312671
0.0013694688
0.0013723961
0.0068753192
0.016518079
0.028075473
0.45439398
0.4571346
0.02826359
0.016632256
0.0069206473
0.0013754197
0.0013785576
0.0069674561
0.016749909
0.028457208
0.45996957
0.46290531
0.028656519
0.016870958
0.0070156512
0.0013818078
0.0013851877
0.0070654284
0.016995744
0.028861827
0.46594695
0.46910192
0.029073278
0.017124195
0.0071166979
0.0013886982
0.0013923594
0.0071696431
0.017256644
0.02929124
0.47237708
0.47578194
0.029515968
0.0173931
0.0072242085
0.0013961765
0.0014001715
0.0072805501
0.017533834
0.029747756
0.47932529
0.48301982
0.029987075
0.017679001
0.0073386796
0.0014043553
0.0014087527
0.0073987795
0.017828983
0.030234454
0.48687732
0.49091397
0.030490329
0.017983931
0.007460874
0.0014133782
0.0014182588
0.0075251449
0.01814425
0.030755301
0.49514571
0.49959215
0.031029983
0.018310191
0.007591648
0.0014234145
0.0014288777
0.0076605516
0.01848219
0.031315116
0.50427405
0.50921694
0.031611329
0.018660478
0.0077318896
0.001434677
0.0014408529
0.0078057628
0.018845415
0.031919321
0.51444905
0.52000494
0.032239746
0.019037131
0.0078821134
0.0014474452
0.0014545108
0.0079608931
0.019235764
0.03257317
0.52592594
0.53226378
0.032919866
0.019441068
0.0080418263
0.0014621098
0.0014703211
0.0081244749
0.019652455
0.033279602
0.5390824
0.5464637
0.033650938
0.019868437
0.0082080256
0.0014792346
0.0014889763
0.0082912255
0.020086221
0.034030259
0.55451047
0.56335677
0.034410895
0.02030118
0.0083722115
0.0014997518
0.0015119547
0.0084492848
0.020508327
0.034784042
0.57317505
0.58422432
0.035143234
0.020705759
0.0085236759
0.0015263009
0.0015444979
0.0086049767
0.020905452
0.035506043
0.59703151
0.61217533
0.03596547
0.021161153
0.0087137411
0.0015702486
0.0016067254
0.0088972454
0.021661902
0.036824365
0.63062321
0.6572461
0.038695063
0.022798778
0.0092678869
0.001652218
0.0017211324
0.010362193
0.025321922
0.043133671
0.68662806
0.69389354
0.040833164
0.024683616
0.01023463
0.0017148423
0.0017729453
0.011719312
0.029254153
0.050158489
0.65080862
0.65761513
0.046813626
0.02714842
0.010976016
0.0017576585
0.0017904492
0.01133607
0.028242597
0.048912455
0.63264847
0.60013148
0.043538252
0.025484546
0.010269442
0.0017283515
0.0016787967
0.0097246118
0.023887383
0.040877228
0.56969663
0.54938741
0.039574675
0.023138375
0.0094597861
0.0016380135
0.0016077827
0.0092890697
0.022725143
0.038848009
0.53354927
0.52075128
0.038314532
0.022421084
0.009168556
0.0015867577
0.0015705678
0.0090672125
0.02215444
0.037841833
0.51011584
0.50093887
0.037387706
0.021898608
0.0089706727
0.0015570937
0.0015453985
0.0088750494
0.021647417
0.03694579
0.49285074
0.48561402
0.036518233
0.02140167
0.0087805017
0.0015349723
0.0015255133
0.0086876908
0.021162946
0.036106965
0.4790507
0.47303383
0.035712795
0.020932187
0.0085971083
0.0015168385
0.001508823
0.0085091297
0.02070969
0.03533526
0.46746755
0.4622824
0.034973724
0.020495489
0.008423968
0.0015013716
0.0014944116
0.0083417027
0.020289318
0.034627073
0.45742401
0.45285119
0.03429447
0.020090853
0.0082622966
0.0014878821
0.0014817395
0.0081857292
0.019899717
0.033974828
0.44853025
0.44443528
0.033667443
0.019715528
0.0081118633
0.0014759427
0.0014704608
0.008040608
0.019537848
0.033371276
0.44054299
0.4368351
0.033085774
0.019366313
0.0079717927
0.0014652616
0.0014603238
0.0079053135
0.019200486
0.032809963
0.43329424
0.42990672
0.032543527
0.019040102
0.0078410139
0.0014556221
0.0014511396
0.0077788103
0.018884773
0.032285558
0.42665884
0.42354036
0.032035866
0.018734272
0.0077185449
0.0014468537
0.0014427522
0.0076601626
0.01858825
0.031793572
0.42053962
0.41764987
0.031558767
0.018446617
0.0076035423
0.001438815
0.0014350337
0.007548653
0.018309049
0.03133057
0.41486156
0.41217218
0.031109324
0.018175552
0.0074953955
0.0014313929
0.0014278878
0.0074437513
0.018045777
0.030894002
0.40957151
0.40705837
0.030685103
0.017919762
0.0073936067
0.0014245041
0.0014212416
0.0073449925
0.017797254
0.030481744
0.40462641
0.40227529
0.030284446
0.01767828
0.007297777
0.0014180866
0.0014150425
0.0072520199
0.017562638
0.030092372
0.40000179
0.39781441
0.029906819
0.017450732
0.0072077057
0.0014120989
0.0014229456
0.0073261492
0.017783055
0.030530992
0.39843917
0.40063249
0.030719418
0.017896356
0.0073709419
0.0014259173
0.0014290069
0.0074173694
0.018013559
0.0309141
0.40290915
0.40526749
0.031114692
0.0181342
0.007465181
0.0014322033
0.0014355218
0.00751458
0.018258589
0.031321291
0.4077056
0.41022726
0.031533869
0.018386504
0.0075654143
0.001438955
0.0014425206
0.0076178909
0.018518304
0.031752721
0.41283457
0.41553356
0.031977977
0.018653876
0.007671902
0.001446216
0.001450061
0.0077276423
0.018793544
0.032209896
0.41832876
0.42122706
0.032448828
0.01893733
0.0077850519
0.0014540576
0.0014582266
0.0078443041
0.019085556
0.032695104
0.42423492
0.42736252
0.032949141
0.019238328
0.0079053993
0.0014625771
0.0014671321
0.0079685153
0.019396
0.033211379
0.43061797
0.43401316
0.033482375
0.019558742
0.0080336614
0.0014719037
0.0014769176
0.0081010309
0.019726932
0.033762615
0.43755975
0.44127265
0.034052699
0.019900785
0.0081706447
0.001482191
0.0014877548
0.0082427249
0.020080777
0.034353356
0.44516702
0.44926132
0.034665233
0.020267121
0.0083172749
0.0014936304
0.0014998567
0.0083944615
0.020460242
0.034989075
0.45357687
0.4581403
0.035325629
0.020660384
0.0084742895
0.001506468
0.0015135184
0.0085568532
0.020867969
0.035675837
0.46298367
0.46814947
0.03604063
0.02108324
0.0086421109
0.0015210658
0.001529194
0.0087300579
0.02130656
0.036421098
0.47369242
0.47968619
0.03681834
0.021538098
0.0088205422
0.0015380044
0.0015476335
0.0089133799
0.021777952
0.037233296
0.48622875
0.49345411
0.037666332
0.02202577
0.009008251
0.0015582605
0.0015701617
0.0091046819
0.022280702
0.038116773
0.50154356
0.51074248
0.038583472
0.022542235
0.0092021846
0.0015837484
0.0015997293
0.0093024157
0.022814799
0.03907127
0.52144402
0.53438714
0.039614868
0.023117047
0.00941855
0.0016202791
0.0016492073
0.0095801538
0.023526493
0.04035323
0.55060457
0.57148307
0.041564138
0.024192723
0.0097705993
0.0016848457
0.0017389089
0.010438736
0.025865822
0.044338159
0.60579113
0.63262939
0.046369366
0.027103642
0.01099726
0.0017854467
0.0017994898
0.011358176
0.027953877
0.047638065
0.65286112
0.6558124
0.05140245
0.029885025
0.011961745
0.0017982555
0.50788862
0.063061613
0.035462893
0.013908701
0.0019997452
0.0018782138
0.0123086
0.030555478
0.053059992
0.6431477
0.73381922
0.0440305
0.026394235
0.010922305
0.0017834379
0.0017570746
0.010865548
0.026613599
0.045517402
0.67551094
0.66231474
0.048010499
0.027726192
0.011175467
0.0017715161
0.0017680968
0.011017416
0.027381786
0.047114622
0.63440378
0.59867264
0.042874406
0.025069135
0.010124119
0.001716371
0.0016688455
0.0095993644
0.023592417
0.040450198
0.56681006
0.54667366
0.039323254
0.022965005
0.0093857658
0.0016316188
0.0016036791
0.0092422068
0.022611346
0.038680286
0.53120643
0.51880741
0.038194449
0.022341584
0.0091364329
0.0015840015
0.0015686363
0.0090442674
0.022097211
0.037753281
0.50853947
0.49967195
0.037320928
0.021856252
0.0089538778
0.0015556958
0.0015443684
0.0088624836
0.021615439
0.036894619
0.49183453
0.48479859
0.036478586
0.021377187
0.0087709367
0.0015342003
0.0015249229
0.0086802227
0.02114382
0.036075755
0.47839382
0.47250094
0.035687786
0.020916939
0.0085911466
0.0015163775
0.0015084581
0.0085043238
0.020697417
0.035315037
0.46703293
0.46192576
0.034957135
0.020485455
0.0084200262
0.0015010782
0.0014941732
0.0083384386
0.02028103
0.034613341
0.45712924
0.45260622
0.034283014
0.020083962
0.0082595807
0.0014876871
0.0014815779
0.0081834422
0.019893931
0.033965202
0.44832567
0.44426338
0.033659279
0.019710626
0.0081099201
0.0014758066
0.001470345
0.008038937
0.01953364
0.033364255
0.44039774
0.43671167
0.03307971
0.01936268
0.0079703487
0.0014651635
0.0014602408
0.0079040778
0.019197377
0.032804772
0.43318936
0.42981722
0.032539049
0.019037419
0.0078399452
0.0014555513
0.0014510793
0.0077778805
0.01888244
0.032281655
0.42658195
0.42347463
0.032032462
0.018732241
0.007717735
0.0014468019
0.0014427073
0.0076594581
0.01858648
0.031790598
0.42048329
0.41760159
0.031556132
0.018445042
0.0076029129
0.0014387757
0.0014349994
0.0075480919
0.018307652
0.031328239
0.4148199
0.41213451
0.031107099
0.018174228
0.0074948691
0.0014313611
0.0014278582
0.0074432646
0.018044563
0.030891983
0.40953807
0.40702878
0.030683203
0.017918619
0.0073931502
0.0014244757
0.0014212141
0.0073445695
0.017796197
0.030479992
0.40460031
0.40225319
0.030282769
0.017677271
0.0072973772
0.0014180589
0.0014150143
0.0072516482
0.0175617
0.030090811
0.39998299
0.39780046
0.029905278
0.017449801
0.0072073333
0.0014120676
0.0013638874
0.0067465883
0.016192965
0.027539673
0.44665518
0.44911724
0.02771159
0.016297208
0.0067877884
0.0013666048
0.0013694221
0.0068304115
0.016404823
0.027888853
0.45166901
0.45430956
0.0280712
0.016515455
0.0068742591
0.0013723335
0.0013753554
0.0069195713
0.016629517
0.028258972
0.45703984
0.45986498
0.028452143
0.016746807
0.0069662036
0.0013784811
0.0013817279
0.0070143553
0.016867678
0.028651027
0.46278788
0.46581522
0.028855737
0.016992027
0.0070639255
0.0013850937
0.001388597
0.0071150917
0.017120155
0.029066546
0.46895192
0.47220598
0.029283702
0.017252051
0.0071677839
0.0013922408
0.0013960459
0.00722216
0.017387978
0.02950745
0.47558472
0.4790988
0.029738242
0.017528038
0.0072781974
0.0014000202
0.0014041872
0.007336055
0.017672507
0.029976357
0.48275871
0.4865767
0.030222269
0.017821548
0.0073957487
0.0014085588
0.0014131611
0.0074574428
0.017975518
0.030476503
0.49056634
0.49474405
0.0307396
0.018134619
0.0075211775
0.0014180115
0.0014231389
0.0075871134
0.018299222
0.031012123
0.49912683
0.50373512
0.031294631
0.01846953
0.0076552787
0.0014285656
0.001434326
0.0077257875
0.018645886
0.031587758
0.50859159
0.51372384
0.031892191
0.018828486
0.0077986269
0.0014404539
0.0014469962
0.007873803
0.01901751
0.032208434
0.51916446
0.52495368
0.032536919
0.019212876
0.007951131
0.0014540006
0.0014615333
0.0080303522
0.019414318
0.032877765
0.53114221
0.53779524
0.033230559
0.019621013
0.0081108956
0.0014696665
0.0014784931
0.0081918589
0.019831305
0.033593597
0.54499585
0.55285636
0.03396328
0.02004221
0.0082718447
0.0014881415
0.0014988263
0.0083490289
0.020249463
0.034333691
0.56152875
0.57122126
0.034697548
0.020448741
0.0084218191
0.0015109348
0.0015251498
0.0084916809
0.020639277
0.035050788
0.58225857
0.59527922
0.035412838
0.020833893
0.0085677866
0.001543095
0.0015682834
0.0086722124
0.021084886
0.035869264
0.61098952
0.630201
0.03662418
0.021520246
0.0088214118
0.0016019798
0.0016492106
0.0091942988
0.022529969
0.038204245
0.65805736
0.68549777
0.041274589
0.024566514
0.010119043
0.001713514
0.0017588963
0.010811565
0.026220002
0.043640031
0.6958377
0.65288258
0.052985127
0.030628543
0.012289394
0.0018294553
0.0018198441
0.011525668
0.028443581
0.048539807
0.65132497
0.62884446
0.043615464
0.025734271
0.010505303
0.0017625001
0.001741257
0.010430868
0.025838958
0.044469247
0.60375097
0.56772125
0.041354689
0.024015848
0.0096663576
0.0016813102
0.001647082
0.0095127393
0.023388276
0.040157087
0.54692429
0.53088464
0.039430591
0.022993875
0.0093623643
0.0016181286
0.0015977142
0.0092567746
0.022713125
0.038915194
0.5183064
0.50801355
0.038454274
0.022459226
0.0091655312
0.0015820002
0.0015686495
0.0090748123
0.022212411
0.038009298
0.49920211
0.49145819
0.037576294
0.021969138
0.0089837068
0.0015569535
0.0015465064
0.0088930779
0.02173065
0.037157374
0.48453285
0.478246
0.036753901
0.02149827
0.0088036071
0.0015370317
0.0015283514
0.0087157878
0.021272703
0.036365958
0.47246784
0.46710539
0.03599316
0.021054249
0.00862998
0.0015203331
0.0015128785
0.0085464486
0.020842911
0.035634615
0.46209113
0.45737509
0.035289743
0.020638645
0.0084653136
0.0015059078
0.0014993645
0.0083866674
0.020441237
0.034957586
0.45291942
0.44869468
0.034637699
0.020250531
0.0083104995
0.0014931988
0.0014873738
0.008236791
0.020066188
0.034329082
0.44467738
0.44084865
0.034031314
0.019887961
0.0081654496
0.0014818553
0.0014766206
0.0080964294
0.019715519
0.033743528
0.43719157
0.433692
0.033465477
0.019548641
0.0080295952
0.0014716416
0.0014668993
0.007964877
0.019386936
0.033196203
0.43033664
0.42711528
0.032935572
0.019230228
0.0079021452
0.0014623698
0.0014580399
0.0078413536
0.019078167
0.032682692
0.424017
0.4210338
0.032437709
0.018930697
0.0077823916
0.0014538897
0.0014499093
0.0077252116
0.018787447
0.032199654
0.41815661
0.41537905
0.031968799
0.0186484
0.0076697078
0.0014460801
0.0014423957
0.0076158532
0.018513178
0.03174409
0.41269511
0.41010038
0.031526133
0.018381887
0.007563563
0.0014388412
0.0014354149
0.0075128273
0.018254164
0.031313812
0.40758956
0.40515981
0.031107904
0.018130163
0.0074635633
0.0014321036
0.0014289095
0.0074157912
0.018009539
0.030907247
0.40280714
0.40053044
0.030712668
0.017892412
0.0073693825
0.0014258196
0.0014228374
0.0073244317
0.017778617
0.03052329
0.39833043
0.39843626
0.030528654
0.017781598
0.0073255314
0.0014228736
0.0014258805
0.0073706456
0.01789555
0.03071791
0.40063007
0.40290882
0.0309134
0.018013075
0.0074171488
0.0014289833
0.0014321951
0.0074651114
0.018133962
0.031114187
0.40526611
0.40770442
0.031320987
0.018258357
0.0075144706
0.0014355124
0.0014389524
0.0075653825
0.01838636
0.031533534
0.41022535
0.41283384
0.031752499
0.018518126
0.0076178074
0.0014425146
0.001446215
0.0076718864
0.018653754
0.031977686
0.41553276
0.41832896
0.032209736
0.01879341
0.0077275835
0.0014500558
0.0014540553
0.0077850447
0.018937225
0.032448579
0.42122724
0.42423584
0.03269497
0.019085459
0.0078442811
0.001458221
0.001462573
0.0079054226
0.01923824
0.032948897
0.42736271
0.43061797
0.033211176
0.019395892
0.0079685227
0.0014671217
0.0014718902
0.0080337144
0.019558615
0.033482007
0.43401153
0.43755603
0.033762143
0.019726725
0.0081010645
0.0014768928
0.0014821563
0.0081707262
0.019900522
0.034051976
0.44126457
0.44515305
0.034352315
0.020080334
0.0082427697
0.0014877004
0.0014935556
0.0083173464
0.020266513
0.034663727
0.44923838
0.45354172
0.034987018
0.020459368
0.0083945117
0.0014997498
0.001506323
0.0084743437
0.020659197
0.035322792
0.45808732
0.46290562
0.035671916
0.020866252
0.0085568322
0.0015133176
0.0015207929
0.0086419683
0.021080745
0.036035077
0.46803475
0.47352518
0.036413067
0.021302756
0.0087296057
0.0015288181
0.0015374902
0.0088195493
0.021532241
0.036806477
0.47944339
0.48588024
0.03721557
0.021768807
0.0089114291
0.0015469293
0.001557307
0.009004755
0.022011559
0.037639683
0.49296085
0.50086041
0.038077172
0.022259032
0.0090988965
0.0015688985
0.001582151
0.0091935373
0.022510418
0.038526234
0.50982202
0.52024192
0.038992326
0.02277047
0.009291376
0.0015978538
0.0016180653
0.0094053342
0.023060804
0.039513457
0.53288462
0.54884845
0.040226265
0.023454936
0.0095653299
0.001646952
0.0016845967
0.0097876244
0.024130455
0.041449803
0.5698038
0.60373446
0.044133684
0.025759306
0.010393634
0.0017342688
0.0017870255
0.011078453
0.027311414
0.046943007
0.63310794
0.65115361
0.046010444
0.02709263
0.011059178
0.001771336
1.5336155
2.6669268
1.9405836
0.69781302
0.043726375
0.02621842
0.010785753
0.0017607902
0.0017891876
0.011355322
0.028254997
0.049035377
0.6599102
0.0019611963
0.013472026
0.034222729
0.060641193
0.50437058
0.43699398
0.057169798
0.032260217
0.012706716
0.0018837138
0.0018887147
0.012648105
0.032193218
0.057135068
0.43466302
0.57957911
0.054794868
0.031192475
0.012440072
0.0018587192
1.0510517
1.2616076
2.4541024
1.9553302
8.1699425
8.2622519
8.2323717
8.1698988
8.1170485
8.1759324
8.1835312
8.1301201
0.0014121073
0.0072079197
0.017451265
0.029907767
0.39780007
0.39998805
0.030093062
0.017562893
0.0072520737
0.0014150387
0.001418083
0.0072978442
0.017678406
0.030284635
0.40225854
0.40460693
0.030481743
0.017797164
0.0073449242
0.0014212285
0.0014244923
0.0073935544
0.017919572
0.03068471
0.4070321
0.40953933
0.030893425
0.018045386
0.0074435761
0.001427867
0.001431371
0.0074952029
0.018174997
0.031108272
0.41213112
0.41481314
0.031329292
0.018308272
0.0075483326
0.0014350022
0.0014387799
0.0076031749
0.018445619
0.031556956
0.41758938
0.42046723
0.031791327
0.018586934
0.0076596404
0.0014427057
0.0014468015
0.0077179282
0.01873263
0.032032956
0.42345294
0.42655618
0.032282018
0.018882697
0.0077779937
0.0014510735
0.0014555475
0.0078400616
0.019037607
0.032539172
0.42978593
0.43315382
0.032804811
0.019197469
0.007904134
0.0014602351
0.0014651617
0.0079704189
0.01936273
0.033079593
0.43667184
0.4403548
0.033364039
0.0195336
0.0080389579
0.0014703435
0.0014758114
0.0081099625
0.019710559
0.033658911
0.44421799
0.44827995
0.033964876
0.019893869
0.0081834849
0.0014815867
0.0014877063
0.0082597071
0.020084009
0.03428277
0.45256169
0.457089
0.034613277
0.020281204
0.0083386475
0.0014942016
0.0015011203
0.0084203928
0.020485846
0.034957286
0.46189318
0.46701509
0.035315599
0.020698119
0.0085048935
0.0015085144
0.0015164546
0.0085920609
0.02091817
0.035688991
0.47250684
0.47843891
0.036077949
0.021145796
0.008681605
0.0015250264
0.0015343487
0.0087731118
0.021380509
0.036482552
0.48490585
0.49204156
0.036902083
0.021621259
0.0088659941
0.0015445929
0.0015560538
0.0089597318
0.021866896
0.037335339
0.50003281
0.50913008
0.037781292
0.022116937
0.0090541057
0.0015692037
0.0015849049
0.009153522
0.022378805
0.038249985
0.51974388
0.53267418
0.038792887
0.022682416
0.0092718409
0.0016051599
0.0016336679
0.0094366261
0.023110628
0.039558599
0.54894211
0.5700646
0.040850989
0.023826171
0.009647203
0.0016685228
0.0017222087
0.010377461
0.0256057
0.043821695
0.60446068
0.63025447
0.044850905
0.026296559
0.01066186
0.0017418284
0.0017832387
0.011304898
0.028156977
0.048874226
0.65567726
0.04452466
0.026652006
0.011056637
0.001790758
0.0017572377
0.010471122
0.025079759
0.041670939
0.71699734
0.62089246
0.04754608
0.027528491
0.011142635
0.0018142403
0.001858309
0.012344122
0.030998883
0.054828122
0.57401474
0.66943082
0.046416045
0.026991715
0.01102623
0.0017648909
0.0017831873
0.011304179
0.028155371
0.048871741
0.65580412
0.63032495
0.044849512
0.026295285
0.010661273
0.0017418203
0.0017221895
0.010376619
0.025603695
0.043818743
0.60449565
0.57007599
0.04084698
0.023823733
0.0096462475
0.0016684895
0.0016336195
0.0094354742
0.023107815
0.039554063
0.54893686
0.53265872
0.038788323
0.022679592
0.0092707018
0.0016051064
0.0015848465
0.0091523742
0.022375981
0.038245405
0.51972181
0.50910396
0.037776816
0.022114179
0.0090529756
0.0015691442
0.0015559943
0.0089586295
0.021864202
0.037330961
0.50000473
0.49201317
0.03689794
0.021618718
0.0088649539
0.0015445374
0.0015342974
0.0087721158
0.021378069
0.036478559
0.48487785
0.47841199
0.03607419
0.021143501
0.0086806661
0.00152498
0.0015164136
0.0085911631
0.020915968
0.035685374
0.47248139
0.46699052
0.035312176
0.02069602
0.0085040285
0.0015084787
0.0015010884
0.0084195342
0.020483754
0.034953873
0.46186884
0.45706382
0.03460986
0.020279095
0.008337772
0.0014941711
0.0014876762
0.0082588032
0.020081813
0.034279201
0.45253502
0.44825132
0.033961307
0.019891653
0.0081825617
0.0014815569
0.00147578
0.0081090014
0.019708236
0.033655166
0.44418703
0.44032091
0.033360205
0.019531212
0.0080379632
0.001470311
0.0014651257
0.0079693797
0.019360207
0.033075514
0.43663477
0.4331132
0.032800755
0.019194939
0.0079030868
0.0014601973
0.0014555069
0.0078389777
0.019034958
0.03253488
0.42974202
0.42650887
0.032277709
0.018880043
0.0077769064
0.0014510305
0.0014467545
0.0077167973
0.018729825
0.032028346
0.42340227
0.42041384
0.031786815
0.018584166
0.0076585106
0.001442656
0.0014387278
0.007602031
0.01844276
0.031552237
0.41753358
0.41475609
0.03132481
0.018305531
0.0075472198
0.0014349505
0.0014313186
0.0074940838
0.018172175
0.031103581
0.41207279
0.40947972
0.030888882
0.018042642
0.0074424721
0.0014278147
0.0014244384
0.0073924366
0.017916734
0.030679939
0.40697125
0.4045453
0.030477161
0.017794425
0.0073438336
0.0014211753
0.0014180271
0.0072967138
0.017675504
0.030279692
0.40219606
0.39992355
0.030088126
0.017560002
0.0072509383
0.0014149804
0.0014120389
0.0072065431
0.017447602
0.02990133
0.39772116
0.39559916
0.029720866
0.017338856
0.0071635686
0.0014091874
0.39837527
0.030527154
0.017780787
0.0073252579
0.001422871
0.0014258571
0.0073701779
0.017894381
0.030715948
0.40057095
0.40284687
0.030910622
0.018011441
0.0074165057
0.0014289416
0.0014321418
0.0074643603
0.018132115
0.031111092
0.40519747
0.40762682
0.03131723
0.018256135
0.0075135787
0.0014354487
0.0014388793
0.007564377
0.01838388
0.031529355
0.41013579
0.41272929
0.031747518
0.018515189
0.0076166278
0.0014424292
0.0014461166
0.0076705392
0.01865042
0.031972047
0.41541012
0.41818458
0.032203002
0.018789449
0.0077259975
0.0014499398
0.00145392
0.0077831911
0.018932628
0.032440777
0.42105686
0.42403502
0.032685712
0.019080005
0.0078420891
0.0014580617
0.0014623873
0.0079028627
0.019231916
0.032938199
0.42712677
0.43034243
0.033198655
0.019388472
0.0079655056
0.0014669077
0.0014716461
0.0080302033
0.019550044
0.033467597
0.43369011
0.43718235
0.033745415
0.019716729
0.0080969368
0.0014766151
0.0014818451
0.0081659071
0.019888967
0.034032753
0.44083134
0.44465235
0.03433019
0.020066968
0.0082371434
0.0014873537
0.0014931741
0.0083107952
0.020251138
0.034638457
0.44866116
0.45287818
0.034958125
0.020441669
0.0083868777
0.0014993335
0.0015058738
0.0084654612
0.02063889
0.03528992
0.45732637
0.46203582
0.035634548
0.020842989
0.0085465157
0.0015128409
0.0015202955
0.0086300124
0.021054218
0.035992877
0.46704358
0.47240089
0.036365553
0.02127257
0.008715762
0.0015283128
0.0015369978
0.008803582
0.021498123
0.036753429
0.47817457
0.4844582
0.037156978
0.021730542
0.0088930694
0.001546477
0.0015569322
0.0089837854
0.021969214
0.037576117
0.49138057
0.49912153
0.038009492
0.022212755
0.0090750119
0.0015686358
0.0015819962
0.0091659398
0.022459988
0.038454985
0.50792779
0.5182114
0.038916431
0.022714328
0.009257412
0.0015977153
0.0016181324
0.0093632785
0.022995581
0.039432386
0.53077272
0.54678439
0.040159415
0.023390459
0.0095139087
0.0016470795
0.0016813047
0.0096678097
0.024018565
0.041357754
0.56753486
0.60348499
0.044474263
0.025842328
0.010432514
0.0017412411
0.0017624265
0.010506431
0.025735618
0.043615869
0.62852
0.65090807
0.048536571
0.028442782
0.011525338
0.0018198614
0.0018297498
0.01228436
0.03063508
0.053003753
0.65241772
0.69533855
0.043653975
0.026227789
0.010814481
0.0017590232
0.0017714306
0.011182337
0.027740249
0.048034761
0.66176134
0.65713098
0.046793075
0.027137635
0.01097288
0.0017571104
0.0017147661
0.0102315
0.024679397
0.04082682
0.69331987
0.65066161
0.046002431
0.027088734
0.011056074
0.0017713228
0.0017993736
0.011350585
0.027942861
0.047620144
0.6524723
0.69740655
0.04371241
0.026209437
0.010779565
0.0017607358
0.0017889599
0.011347568
0.028241564
0.049015153
0.65970259
0.63276932
0.044104492
0.025901196
0.010509209
0.0017370867
0.0017176773
0.010303736
0.025441827
0.043590034
0.60671917
0.57209988
0.040855591
0.023812341
0.0096347837
0.0016668342
0.0016328448
0.0094276945
0.023102385
0.039566524
0.55019474
0.5335084
0.038796075
0.022676656
0.0092665668
0.0016047131
0.0015846782
0.0091510599
0.022376347
0.038253067
0.52035612
0.50961259
0.037785395
0.02211689
0.009053386
0.0015691046
0.0015560326
0.0089600876
0.021868605
0.037340699
0.50043491
0.49238927
0.036908534
0.021624202
0.0088670098
0.0015446256
0.0015344149
0.0087744563
0.021384065
0.036489453
0.485211
0.47870737
0.036084834
0.021149541
0.0086830633
0.0015251112
0.0015165467
0.0085934792
0.020921772
0.035695431
0.47274253
0.46722036
0.035321441
0.020701425
0.0085061948
0.0015086074
0.0015012091
0.0084215145
0.020488695
0.034962286
0.46207044
0.45724028
0.034617446
0.020283572
0.0083395694
0.0014942825
0.0014877779
0.0082604178
0.020085841
0.034286009
0.45268931
0.44838598
0.03396737
0.019895251
0.0081840052
0.0014816489
0.0014758623
0.0081102794
0.019711432
0.033660553
0.44430411
0.4404228
0.033364979
0.019534057
0.0080391056
0.0014703841
0.0014651907
0.0079703874
0.019362725
0.033079742
0.43672297
0.43318968
0.032804411
0.019197122
0.0079039585
0.0014602541
0.0014555565
0.0078397445
0.019036878
0.032538098
0.42980767
0.42656569
0.032280508
0.01888171
0.0077775695
0.0014510738
0.0014467921
0.0077173759
0.018731289
0.032030826
0.42345123
0.42045559
0.031789032
0.018585479
0.0076590329
0.0014426902
0.001438758
0.007602497
0.018443942
0.031554237
0.41757052
0.4147878
0.031326509
0.018306555
0.0075476325
0.0014349765
0.0014313404
0.0074944377
0.018173074
0.031105093
0.4121001
0.40950422
0.030890218
0.018043442
0.0074427902
0.0014278335
0.0014244547
0.0073927191
0.017917445
0.030681134
0.40699264
0.40456619
0.030478294
0.017795098
0.007344099
0.0014211899
0.0014180397
0.007296961
0.01767613
0.03028074
0.40221578
0.39994284
0.030088991
0.01756054
0.0072511577