/*--------------------------------*- C++ -*----------------------------------*\
  =========                 |
  \\      /  F ield         | OpenFOAM: The Open Source CFD Toolbox
   \\    /   O peration     | Website:  https://openfoam.org
    \\  /    A nd           | Version:  7
     \\/     M anipulation  |
\*---------------------------------------------------------------------------*/
FoamFile
{
    version     2.0;
    format      ascii;
    class       volScalarField;
    location    "310";
    object      nut;
}
// * * * * * * * * * * * * * * * * * * * * * * * * * * * * * * * * * * * * * //

dimensions      [0 2 -1 0 0 0 0];

internalField   nonuniform List<scalar> 
24789
(
0.0012097897
0.0062029461
0.015052406
0.025847886
0.33755476
0.33937385
0.026005304
0.015147002
0.0062402957
0.0012122883
0.001214876
0.0062789214
0.01524463
0.026167557
0.3412574
0.34320493
0.026334381
0.015344912
0.0063186137
0.0012175462
0.0012203141
0.0063595968
0.015448218
0.026506007
0.34521641
0.34729593
0.026682529
0.015554399
0.0064017436
0.0012231743
0.0012261426
0.0064452478
0.015663759
0.026864131
0.34944438
0.35166641
0.027051051
0.015776245
0.0064900169
0.0012292167
0.0012324135
0.0065362213
0.015892113
0.027243443
0.35396477
0.35634497
0.027441514
0.01601133
0.0065837895
0.0012357332
0.0012391927
0.0066328858
0.01613419
0.027645561
0.35881058
0.36136925
0.027855884
0.016260736
0.0066834732
0.0012427983
0.0012465705
0.0067357279
0.016391307
0.028072919
0.36402693
0.36679272
0.028296957
0.016525968
0.0067896354
0.0012505176
0.0012546621
0.0068453559
0.016665044
0.028528437
0.36967453
0.37268314
0.028767845
0.016808711
0.0069029161
0.0012590169
0.0012636072
0.0069624749
0.016957338
0.029015749
0.37582894
0.3791256
0.029272623
0.017111099
0.0070240659
0.0012684512
0.001273579
0.0070878385
0.017270363
0.02953907
0.38258689
0.38623041
0.029815724
0.017435354
0.0071538147
0.0012790161
0.0012848003
0.0072220796
0.017606389
0.030103254
0.39007617
0.39415096
0.030402343
0.017783659
0.0072926165
0.0012909729
0.0012975906
0.0073654234
0.017967421
0.030713742
0.39848749
0.40313043
0.031038196
0.018157767
0.0074403853
0.0013047186
0.0013124465
0.0075173336
0.018354792
0.031376527
0.4081383
0.41359201
0.031729228
0.018558245
0.0075959323
0.0013208812
0.0013301588
0.00767568
0.01876742
0.032096062
0.41960022
0.42631723
0.032475791
0.018980936
0.0077557971
0.0013404853
0.0013521918
0.0078353464
0.019197554
0.032866681
0.43396414
0.44283596
0.033266051
0.019416128
0.007913418
0.0013656631
0.001382223
0.0079953103
0.019639634
0.033684969
0.45343092
0.46718168
0.034259291
0.019940914
0.0081070034
0.0014061942
0.0014408667
0.0082618581
0.020508664
0.035318196
0.48635022
0.5154992
0.037322819
0.021770242
0.0088003166
0.0014804709
0.0015062723
0.009077611
0.022287624
0.037919599
0.53640841
0.55305994
0.040384084
0.02369689
0.0096217411
0.0015339233
0.001521999
0.010068578
0.025106727
0.04315025
0.55178565
0.58997585
0.037192332
0.022298418
0.009183243
0.0015001956
0.0014657822
0.0087605034
0.021370344
0.036106112
0.58229781
0.56154053
0.033024501
0.019495938
0.0079504554
0.0014168552
0.0013767272
0.0076092283
0.01857535
0.031560054
0.53967973
0.52279173
0.030793342
0.018122699
0.0074563779
0.0013433393
0.0013209221
0.007354301
0.01787582
0.030360174
0.50929645
0.49815472
0.030025537
0.017690476
0.0072810195
0.0013052959
0.0012925208
0.0072132515
0.017508752
0.029696055
0.48847746
0.47993132
0.029362059
0.017322936
0.0071443474
0.0012815393
0.0012718804
0.0070732565
0.017134171
0.029028093
0.47230097
0.4653986
0.028698446
0.016944813
0.007000839
0.0012631757
0.0012552263
0.0069284604
0.016757953
0.028377281
0.45909068
0.45328058
0.028067192
0.016575705
0.0068571124
0.001247923
0.001241181
0.0067873919
0.016399047
0.027768905
0.44789084
0.44286139
0.027482445
0.016228375
0.0067196321
0.0012349262
0.0012291012
0.0066540096
0.016063742
0.027207307
0.43814427
0.43370241
0.026943067
0.015905072
0.0065905803
0.0012236564
0.001218552
0.0065293472
0.015752144
0.026689017
0.42950533
0.42552838
0.026444683
0.015604733
0.0064702536
0.0012137532
0.0012092331
0.0064132232
0.015462499
0.026209238
0.42175006
0.41815367
0.025982367
0.015325217
0.006358153
0.0012049628
0.0012009232
0.0063049637
0.015192539
0.025763271
0.41472163
0.41144137
0.025551731
0.015064263
0.0062535217
0.0011970903
0.0011934483
0.0062037683
0.014940041
0.025346912
0.40829851
0.40528379
0.025148775
0.014819729
0.0061555716
0.0011899771
0.0011866627
0.0061088904
0.014703033
0.024956581
0.40238548
0.39959733
0.024770466
0.014589918
0.006063644
0.0011834896
0.0011804479
0.0060197928
0.014480084
0.024589644
0.39690987
0.39431753
0.024414357
0.014373536
0.0059772666
0.0011775238
0.0011747125
0.005936048
0.014270025
0.024243893
0.39181558
0.38939832
0.024078579
0.014169563
0.0058960518
0.0011720007
0.0011693872
0.0058572857
0.01407192
0.023917682
0.38706046
0.38479997
0.023761603
0.013977119
0.0058196518
0.0011668606
0.0011644226
0.0057831793
0.013884952
0.023609587
0.38261178
0.38049748
0.023462154
0.013795437
0.0057477437
0.0011620622
0.0011597785
0.0057135005
0.013708601
0.023318787
0.37845656
0.38060921
0.023467194
0.013798408
0.0057489028
0.0011621174
0.0011644824
0.0057843221
0.013887875
0.023614514
0.38271555
0.38490573
0.023766527
0.013980072
0.0058208283
0.0011669244
0.001169456
0.0058585446
0.014075104
0.023923017
0.38717227
0.38951799
0.024084072
0.014172854
0.0058973657
0.0011720731
0.001174791
0.005937467
0.014273608
0.024249885
0.39194498
0.3944588
0.024420633
0.014377308
0.0059787721
0.0011776089
0.001180542
0.0060214496
0.014484249
0.024596584
0.39706394
0.39976684
0.024777875
0.014594379
0.0060654279
0.0011835919
0.0011867763
0.0061108664
0.014707991
0.024964836
0.40257352
0.4054922
0.025157702
0.014825104
0.0061577238
0.0011901009
0.001193585
0.0062061371
0.014945961
0.025356741
0.40853062
0.41169975
0.025562378
0.015070708
0.0062561235
0.0011972393
0.0012010861
0.0063078443
0.015199685
0.025775087
0.41500992
0.41847517
0.025995269
0.01533304
0.0063613289
0.0012051391
0.0012094229
0.00641674
0.015471136
0.026223467
0.42210945
0.42592982
0.026460242
0.015614213
0.0064741365
0.0012139565
0.0012187692
0.0065336722
0.015762667
0.026706267
0.42995451
0.43420576
0.026962127
0.015916727
0.0065953898
0.0012238881
0.0012293499
0.0066593894
0.016076732
0.027228476
0.43870843
0.44349274
0.027505934
0.016242836
0.0067256391
0.0012351917
0.0012414648
0.006794115
0.016415197
0.027795058
0.4485951
0.45406075
0.028096157
0.016593651
0.0068646004
0.0012482233
0.0012555381
0.0069367433
0.016777755
0.028409134
0.45994645
0.46632448
0.028732875
0.0169663
0.0070098711
0.0012634884
0.0012721762
0.0070828999
0.01715688
0.029064273
0.47328433
0.48094549
0.029397716
0.017345583
0.0071542542
0.0012817854
0.001292683
0.007222694
0.017528726
0.029726729
0.48947908
0.49908922
0.030044816
0.017704069
0.007288972
0.001305408
0.0013210293
0.0073591797
0.017876719
0.030358198
0.51005988
0.52319615
0.030759659
0.018100197
0.007454011
0.001343295
0.0013782349
0.007631026
0.0185776
0.031578031
0.54031931
0.56294268
0.033265606
0.019608097
0.0079740521
0.0014223521
0.0014596879
0.0087886903
0.021478891
0.036593307
0.58362628
0.59167237
0.034879047
0.021089139
0.0087459069
0.0014659107
0.0015061888
0.0099524748
0.024838212
0.042579623
0.55257431
0.56004625
0.039870136
0.023122793
0.0093491735
0.001497418
0.0015201389
0.009624509
0.023980013
0.041535775
0.53791262
0.51407275
0.037405109
0.021903739
0.008830168
0.0014869279
0.0014407663
0.0083446343
0.020496025
0.035070124
0.48831679
0.46963768
0.033851004
0.019794079
0.0080932783
0.0014014563
0.0013752233
0.0079444962
0.019433245
0.033216238
0.45587076
0.44489195
0.032755608
0.019170587
0.0078404654
0.0013571489
0.0013427776
0.0077506695
0.018934931
0.032338563
0.43564695
0.42767458
0.031938917
0.018709312
0.0076652116
0.0013307307
0.0013202929
0.0075810801
0.01848904
0.031552118
0.42067042
0.41440981
0.031178735
0.018274095
0.0074981441
0.0013109835
0.0013025444
0.0074169579
0.018065787
0.030820325
0.40873681
0.40354125
0.030477538
0.017864905
0.0073379398
0.0012948205
0.0012876996
0.0072613744
0.017671612
0.030149823
0.39873911
0.39426914
0.029836495
0.017485853
0.0071874099
0.0012810948
0.00127494
0.0071160888
0.017307342
0.029536507
0.39008394
0.3861473
0.029249051
0.017135748
0.0070473564
0.0012691792
0.0012637712
0.0069811723
0.016970697
0.028973123
0.38242982
0.37890868
0.028708053
0.016811825
0.0069174032
0.0012586782
0.0012538705
0.0068559545
0.01665872
0.028452901
0.37556357
0.37237846
0.028207149
0.016511046
0.0067966696
0.0012493192
0.0012450037
0.0067394484
0.016368405
0.027969928
0.36933823
0.36643084
0.027740927
0.016230547
0.0066841477
0.0012409009
0.0012369947
0.0066306879
0.016097124
0.027519352
0.3636444
0.36096993
0.027305007
0.015967927
0.0065789284
0.0012332651
0.0012297
0.0065288155
0.015842645
0.027097128
0.35839736
0.35592069
0.026895766
0.015721186
0.0064802407
0.0012262817
0.0012230021
0.0064331731
0.015603267
0.02670016
0.3535317
0.35122807
0.026510582
0.015488883
0.0063875242
0.0012198474
0.0012168128
0.0063432742
0.015377727
0.026326148
0.34900102
0.34684943
0.026147271
0.015269827
0.0063003244
0.0012138856
0.0012110652
0.0062586972
0.015164959
0.025973188
0.3447678
0.34275577
0.025804336
0.015063144
0.0062182796
0.0012083395
0.0012057108
0.0061791184
0.014964202
0.025639993
0.34081048
0.33893897
0.025481258
0.014868475
0.0061412011
0.0012031704
0.0012124092
0.006242104
0.01515159
0.026013012
0.33947098
0.34134748
0.026174203
0.01524851
0.0062804312
0.0012149737
0.0012176412
0.0063201653
0.015348788
0.02634078
0.34329545
0.34531361
0.02651245
0.01545203
0.0063610934
0.0012204024
0.0012232705
0.0064033909
0.015558505
0.026689305
0.34740047
0.3495593
0.026871329
0.015668032
0.0064469313
0.0012262401
0.0012293263
0.0064918923
0.015780919
0.027058785
0.35179198
0.35410377
0.027251796
0.015897082
0.0065381871
0.0012325279
0.0012358619
0.0065859824
0.016016797
0.027450589
0.3564986
0.35898251
0.027655485
0.016140101
0.0066352339
0.0012393311
0.001242954
0.0066860928
0.016267274
0.027866781
0.36156113
0.3642433
0.028084851
0.016398421
0.0067385649
0.0012467394
0.0012507079
0.0067928082
0.016533856
0.028310094
0.36703613
0.36994997
0.028543011
0.016673742
0.0068488383
0.0012548713
0.0012592527
0.006906827
0.016818419
0.028784044
0.37299499
0.37618423
0.029033747
0.016968097
0.0069668045
0.0012638691
0.0012687481
0.0070289682
0.0171232
0.029292772
0.37953091
0.38305124
0.02956173
0.017283947
0.0070933375
0.001273911
0.0012793931
0.0071600681
0.017450733
0.029841308
0.38676388
0.39069218
0.030132213
0.017623809
0.0072291835
0.0012852274
0.001291463
0.0073007841
0.017803583
0.030435327
0.39486425
0.39931734
0.030751535
0.017990319
0.0073748581
0.0012981536
0.0013053742
0.0074514251
0.018184385
0.031081868
0.40409934
0.40927506
0.0314274
0.018386003
0.007530386
0.0013132162
0.0013217998
0.0076116106
0.018595329
0.031789066
0.41493044
0.42118099
0.032167156
0.01881204
0.0076948105
0.001331274
0.0013418748
0.0077795904
0.019035455
0.032561204
0.42818649
0.43617765
0.032971493
0.019265833
0.0078657928
0.001353992
0.0013681339
0.0079543863
0.019505985
0.033400537
0.44546426
0.4565357
0.033867619
0.019765796
0.0080541371
0.0013857027
0.0014108588
0.0081953006
0.020124116
0.034514204
0.47069887
0.48997112
0.035689831
0.02077724
0.0083924597
0.0014475029
0.0014902992
0.0089434172
0.022155802
0.037970178
0.51798222
0.53859946
0.039445241
0.023055986
0.0093550858
0.0015189564
0.0015359981
0.0096929352
0.023852951
0.040644989
0.55652005
0.55636568
0.043607235
0.025357032
0.010151513
0.0015266401
0.42976337
0.053273387
0.029950691
0.011744474
0.0016884133
0.0015860208
0.010393775
0.025802005
0.044811211
0.54455853
0.6223799
0.037339245
0.022385218
0.0092642195
0.0015129763
0.0014928197
0.0092300583
0.022605403
0.038659512
0.5738505
0.56357542
0.040836537
0.023582783
0.0095056741
0.0015069524
0.0015062761
0.0093840914
0.023319635
0.040122545
0.54020057
0.51259634
0.036778552
0.021510732
0.0086893072
0.0014737399
0.0014321916
0.0082371238
0.020242729
0.034702882
0.48579087
0.46732252
0.033634476
0.019644756
0.0080294836
0.0013958913
0.0013715726
0.0079037233
0.019334416
0.033070481
0.45386068
0.44322823
0.032651386
0.019101565
0.0078124893
0.0013546809
0.0013410393
0.0077306847
0.018885289
0.032261856
0.43430154
0.42659414
0.031881107
0.018672579
0.0076505825
0.0013294733
0.0013193654
0.0075701407
0.018461328
0.031507866
0.4198043
0.41371545
0.031144516
0.018252915
0.0074898303
0.0013102893
0.0013020151
0.0074104799
0.018049272
0.03079344
0.40817782
0.40308803
0.030456038
0.017851767
0.0073327813
0.0012944093
0.0012873758
0.0072572261
0.017661059
0.030132472
0.39836966
0.39396617
0.029822299
0.017477249
0.0071840189
0.0012808366
0.0012747319
0.0071132901
0.017300255
0.029524785
0.38983369
0.38593944
0.029239295
0.01712987
0.0070450344
0.0012690104
0.0012636325
0.0069792233
0.016965775
0.028964944
0.38225633
0.37876297
0.028701131
0.016807664
0.0069157515
0.0012585623
0.001253773
0.0068545387
0.016655158
0.028446963
0.37544053
0.37227396
0.028202029
0.016507978
0.0067954495
0.0012492373
0.0012449349
0.006738406
0.016365782
0.027965551
0.36924946
0.36635511
0.027737159
0.016228289
0.0066832483
0.0012408427
0.0012369455
0.006629907
0.016095164
0.027516071
0.36357937
0.36091438
0.02730215
0.015966223
0.0065782494
0.001233223
0.0012296637
0.0065282252
0.01584116
0.027094633
0.35834974
0.35587991
0.02689356
0.015719868
0.0064797146
0.0012262502
0.0012229747
0.0064327042
0.015602098
0.026698209
0.35349653
0.35119628
0.026508719
0.015487774
0.0063870843
0.0012198221
0.0012167892
0.0063428676
0.015376711
0.026324457
0.34897281
0.34682448
0.026145679
0.01526887
0.0062999429
0.001213863
0.0012110431
0.0062583434
0.015164074
0.025971719
0.34474579
0.34273713
0.025802928
0.015062298
0.0062179445
0.0012083171
0.0012056877
0.0061788063
0.014963413
0.025638679
0.34079462
0.33892721
0.025479959
0.01486769
0.0061408874
0.0012031445
0.0011621052
0.0057483722
0.013796952
0.023464595
0.38055163
0.382658
0.023611676
0.013886132
0.005783631
0.0011644528
0.0011668883
0.005820117
0.01397822
0.023763368
0.38484138
0.38710109
0.023919448
0.014072913
0.0058576613
0.001169407
0.0011720229
0.0058964703
0.014170568
0.024080215
0.38943807
0.39185674
0.024245658
0.01427102
0.0059364242
0.001174731
0.0011775466
0.0059776945
0.014374573
0.024416049
0.39435971
0.39695275
0.024591503
0.01448115
0.0060201994
0.0011804684
0.0011835128
0.0060640928
0.014591012
0.02477226
0.3996402
0.40242901
0.024958549
0.014704163
0.0061093206
0.0011866834
0.0011899986
0.006156021
0.014820836
0.025150596
0.4053256
0.40833921
0.025348806
0.014941131
0.0062041811
0.0011934664
0.0011971076
0.0062539417
0.015065296
0.025553439
0.41147902
0.41475568
0.025764923
0.015193489
0.0063053241
0.0012009341
0.001204969
0.0063584756
0.015326028
0.025983735
0.41818107
0.4217695
0.026210369
0.015463108
0.0064134399
0.0012092291
0.0012137408
0.0064703636
0.015605069
0.026445341
0.42553587
0.42949804
0.02668917
0.015752109
0.0065292827
0.0012185252
0.0012236137
0.006590307
0.015904552
0.026942446
0.43367594
0.4380937
0.027205811
0.016062599
0.0066534407
0.0012290379
0.0012348404
0.006718705
0.016226442
0.027479759
0.44278003
0.4477702
0.027764727
0.016396055
0.0067859602
0.0012410649
0.0012477706
0.0068550025
0.016571253
0.028060894
0.45310883
0.45885346
0.028368011
0.016751395
0.0069253678
0.0012550227
0.0012629021
0.0069963024
0.016935118
0.028684722
0.46507764
0.47187824
0.02900791
0.017119839
0.007066594
0.0012715119
0.001281046
0.0071347094
0.01730198
0.029332651
0.47939177
0.48781926
0.02965376
0.017478417
0.0071994946
0.0012918642
0.0013044572
0.0072617894
0.017647593
0.029966292
0.49741201
0.50855653
0.030278154
0.017815403
0.0073273602
0.0013198308
0.0013417569
0.0074192097
0.018036764
0.030680413
0.52225584
0.53998872
0.031419963
0.018464744
0.0075698129
0.0013748996
0.0014152954
0.0078871707
0.019321954
0.032755321
0.56295789
0.58433648
0.035178159
0.020938639
0.0086251966
0.0014608311
0.0015032035
0.0092362499
0.022392871
0.037259987
0.59277776
0.55381947
0.044804745
0.025890859
0.010385556
0.0015456695
0.0015512483
0.0098226862
0.024237529
0.041357519
0.55460202
0.53671711
0.037255758
0.021985026
0.0089758635
0.00150631
0.0014871575
0.008908013
0.022065899
0.037974945
0.51564737
0.48677433
0.035535094
0.02064187
0.0083103859
0.0014458951
0.0014091801
0.0081383961
0.020007541
0.034349006
0.46757879
0.45353702
0.033710044
0.019660595
0.0080061812
0.0013838833
0.0013664692
0.0079156708
0.019419728
0.033268083
0.44278503
0.43385148
0.0328622
0.01919563
0.0078348032
0.0013525627
0.0013406432
0.0077543784
0.01897778
0.032470398
0.42619138
0.41948118
0.032091173
0.018764274
0.0076741241
0.0013302125
0.0013208863
0.0075945229
0.018555481
0.031725071
0.41348704
0.40804998
0.03137313
0.018352481
0.0075161467
0.0013124288
0.0013046926
0.007439436
0.01815591
0.031035463
0.40305824
0.39843018
0.030711605
0.017965949
0.0073646721
0.0012975609
0.0012909453
0.0072920512
0.017782527
0.030400666
0.39410626
0.39004263
0.030102047
0.017605546
0.0072216518
0.001284774
0.0012789947
0.0071535293
0.017434769
0.029814844
0.38620607
0.3825707
0.029538594
0.017270014
0.0070876545
0.0012735615
0.0012684396
0.0070239916
0.017110949
0.029272379
0.37911585
0.37582497
0.029015783
0.01695733
0.0069624482
0.0012635973
0.0012590125
0.0069029698
0.01680884
0.028768016
0.37268319
0.36967811
0.028528823
0.016665266
0.0068454303
0.0012546594
0.0012505199
0.0067897595
0.016526251
0.028297355
0.3667981
0.36403421
0.028073465
0.016391626
0.0067358391
0.0012465722
0.0012428035
0.0066836212
0.016261077
0.027856366
0.36137691
0.35881919
0.027646158
0.016134539
0.0066330062
0.001239196
0.0012357399
0.0065839472
0.016011686
0.027441998
0.35635318
0.35397328
0.027244098
0.015892491
0.00653635
0.0012324187
0.001229226
0.0064901859
0.015776621
0.027051544
0.35167423
0.34945217
0.02686484
0.01566416
0.0064453809
0.0012261487
0.0012231845
0.0064019222
0.015554792
0.026683026
0.3473025
0.3452227
0.02650675
0.015448641
0.0063597373
0.0012203221
0.0012175625
0.0063188408
0.015345409
0.026335018
0.34320929
0.34126125
0.026168523
0.015245192
0.0062791213
0.0012148944
0.001212321
0.0062406595
0.015147852
0.026006522
0.33937912
0.33946852
0.026011015
0.015150346
0.0062415763
0.0012123476
0.0012149417
0.006280176
0.015247818
0.026172911
0.34134541
0.34329515
0.026340173
0.015348369
0.0063199742
0.0012176204
0.0012203944
0.00636103
0.015451819
0.026512008
0.34531242
0.34739945
0.026689031
0.015558298
0.0064032931
0.0012232615
0.0012262365
0.006446898
0.015667896
0.026871027
0.34955765
0.35179132
0.027058574
0.015780753
0.006491814
0.0012293196
0.0012325247
0.0065381635
0.015896956
0.027251517
0.35410301
0.3564987
0.027450417
0.01601666
0.0065859207
0.0012358548
0.0012393257
0.0066352124
0.01613998
0.027655227
0.35898255
0.36156175
0.027866606
0.01626715
0.0066860533
0.0012429448
0.0012467303
0.0067385598
0.016398293
0.028084568
0.36424326
0.36703587
0.028309825
0.016533698
0.006792783
0.001250692
0.0012548509
0.0068488432
0.016673551
0.028542576
0.36994825
0.37299142
0.028783492
0.01681814
0.0069068061
0.0012592206
0.0012638254
0.00696681
0.01696774
0.029032937
0.37617682
0.37951839
0.029291649
0.017122661
0.0070289283
0.0012686845
0.0012738257
0.0070933007
0.017283228
0.029560153
0.38303093
0.38673301
0.029839193
0.01744974
0.0071599908
0.0012792758
0.0012850716
0.0072290825
0.017622493
0.030129353
0.39064593
0.39479643
0.030431447
0.017801752
0.0073005879
0.0012912532
0.0012978747
0.0073745224
0.017987749
0.030746156
0.39921799
0.40395489
0.031074253
0.018180616
0.0074507859
0.0013049993
0.0013127145
0.0075292427
0.018380391
0.031416382
0.40906575
0.41463047
0.031772909
0.018586821
0.0076096076
0.0013211273
0.0013303816
0.0076914532
0.018799131
0.032143267
0.42075703
0.42759971
0.032526175
0.019016126
0.0077742557
0.0013407139
0.0013525449
0.0078579981
0.019237785
0.032921305
0.43538671
0.44443728
0.033332106
0.019467436
0.0079446406
0.0013664725
0.0013838085
0.0080427916
0.019717623
0.03378083
0.45525711
0.46914203
0.034402051
0.020060924
0.0081818581
0.0014087993
0.0014465456
0.0084029718
0.02071415
0.03557633
0.4884636
0.51677355
0.037865991
0.022108328
0.0089231524
0.0014895447
0.0015166261
0.0094025489
0.023181426
0.039849158
0.53823365
0.55556141
0.039311812
0.023152172
0.0094518761
0.0015142403
1.3057978
2.2731934
1.652619
0.59456695
0.037315847
0.022378895
0.0092079631
0.0015036708
0.0015214124
0.0096548709
0.024023327
0.041692647
0.56129019
0.0016612724
0.011410596
0.028985237
0.051363438
0.42734827
0.3712188
0.048533794
0.027388007
0.010788329
0.0015996555
0.0016105787
0.010782309
0.02743965
0.048689044
0.37004879
0.4923357
0.04654291
0.026496435
0.010568551
0.0015794233
0.89260299
1.0684596
2.0854911
1.6602258
6.9600379
7.0385479
7.013427
6.9600017
6.9151507
6.9653643
6.9717704
6.9262939
0.0012031785
0.006141388
0.01486894
0.025482082
0.33892685
0.34079884
0.025640596
0.01496443
0.0061791691
0.0012057085
0.0012083373
0.0062183413
0.015063262
0.025804513
0.34274157
0.34475127
0.025973204
0.015164894
0.0062586442
0.001211055
0.0012138766
0.0063002848
0.015269676
0.026146953
0.34682712
0.34897369
0.026325676
0.015377407
0.0063431309
0.0012167962
0.0012198299
0.0063873658
0.015488423
0.026509707
0.3511932
0.35349059
0.026699096
0.015602621
0.0064329072
0.0012229767
0.0012262531
0.0064799345
0.015720352
0.026894249
0.35586934
0.35833589
0.027095242
0.01584154
0.0065283775
0.0012296617
0.0012332217
0.0065784098
0.015966545
0.027302556
0.36089574
0.36355727
0.027516365
0.016095374
0.0066299994
0.0012369396
0.0012408381
0.0066833418
0.016228437
0.027737246
0.36632832
0.36921904
0.027965562
0.016365847
0.0067384472
0.0012449284
0.0012492335
0.0067954998
0.016508001
0.028201902
0.37223991
0.37540385
0.028446744
0.0166551
0.0068545449
0.0012537691
0.0012585627
0.0069157718
0.016807575
0.028700772
0.37872425
0.3822173
0.028964605
0.016965679
0.0069792387
0.0012636352
0.00126902
0.0070451129
0.017129851
0.029239003
0.38590148
0.38979935
0.029524616
0.017300324
0.0071134287
0.0012747473
0.0012808606
0.0071842782
0.017477476
0.029822275
0.39393844
0.39835446
0.030132749
0.017661516
0.0072576416
0.0012874082
0.0012944542
0.0073334667
0.017852626
0.030456795
0.40309315
0.40821634
0.030794959
0.018050711
0.0074115372
0.0013020767
0.0013103816
0.0074915292
0.018255432
0.031147448
0.41380719
0.41998096
0.031513651
0.018465885
0.007572935
0.0013195132
0.0013297261
0.0076553369
0.018681175
0.031892717
0.42690314
0.43480995
0.032285168
0.018901671
0.0077388433
0.0013414683
0.0013553495
0.0078266078
0.019132344
0.032697291
0.4440201
0.45507901
0.033162604
0.019392639
0.0079279607
0.0013726235
0.0013978196
0.0080740398
0.019772081
0.033840831
0.46937148
0.48877702
0.035089881
0.020470191
0.0082897768
0.0014340579
0.0014712363
0.0088640655
0.021870646
0.037427904
0.5162716
0.53834377
0.038370114
0.022501617
0.009125067
0.0014913455
0.0015178067
0.009620078
0.023957178
0.041581406
0.55763303
0.037802438
0.02262873
0.0093875923
0.0015205273
0.0014954468
0.008909171
0.021335962
0.035444353
0.60968007
0.52786679
0.040412202
0.02340171
0.0094734397
0.0015428987
0.0015668055
0.0104104
0.026148666
0.046264858
0.48578656
0.56706064
0.039252346
0.022823698
0.0093231899
0.0014922526
0.0015177854
0.0096196022
0.023956109
0.04157974
0.5577426
0.53840598
0.038369086
0.022500616
0.0091245976
0.0014913444
0.0014712224
0.0088633601
0.021868978
0.037425476
0.51630359
0.48878966
0.035086568
0.020468165
0.0082889777
0.0014340322
0.0013977806
0.0080730728
0.019769728
0.033837058
0.46936953
0.45506831
0.033158803
0.019390276
0.0079270039
0.0013725799
0.001355303
0.0078256501
0.019129994
0.032693494
0.44400361
0.43478987
0.032281467
0.018899382
0.0077379035
0.0013414214
0.0013296798
0.0076544233
0.018678946
0.031889107
0.42688124
0.41995865
0.031510241
0.018463788
0.0075720755
0.0013194706
0.001310343
0.0074907095
0.018253425
0.031144171
0.41378507
0.40819504
0.030791879
0.018048828
0.0074107667
0.0013020425
0.0012944247
0.0073327317
0.017850822
0.030453836
0.403073
0.39833498
0.030129953
0.017659799
0.0072569348
0.0012873833
0.001280839
0.0071835767
0.017475765
0.029819486
0.39391907
0.3897792
0.029521821
0.017298597
0.0071127126
0.001274727
0.0012690001
0.0070443723
0.017128049
0.029236077
0.38587999
0.38219407
0.028961673
0.016963858
0.0069784806
0.0012636154
0.0012585414
0.0069149805
0.01680566
0.028697687
0.37869895
0.37537601
0.028443579
0.016653128
0.0068537245
0.0012537467
0.001249208
0.0067946399
0.016505911
0.028198524
0.3722093
0.36918534
0.027962197
0.016363747
0.0067375793
0.0012449011
0.0012408081
0.0066824409
0.016226232
0.027733675
0.36629176
0.36351775
0.027512773
0.01609316
0.0066290941
0.0012369073
0.0012331857
0.0065774662
0.015964201
0.027298705
0.36085333
0.35829113
0.027091469
0.015839225
0.0065274341
0.0012296233
0.0012262124
0.0064789775
0.015717957
0.026890297
0.35582248
0.35344262
0.026695338
0.015600323
0.0064319753
0.001222936
0.0012197884
0.0063864275
0.015486054
0.026505769
0.35114411
0.34892348
0.026321859
0.015375102
0.0063422045
0.0012167547
0.0012138334
0.0062993458
0.015267289
0.026142939
0.34677582
0.34469928
0.025969347
0.015162589
0.0062577275
0.0012110123
0.001208292
0.0062173895
0.015060815
0.025800345
0.34268881
0.34074436
0.025636432
0.014961992
0.0061782128
0.0012056613
0.0012031221
0.006140224
0.014865839
0.025476632
0.3388602
0.33704502
0.02532228
0.014772832
0.0061034589
0.0012006621
0.33941687
0.026009774
0.015149677
0.006241353
0.0012123474
0.0012149238
0.0062797872
0.015246843
0.026171273
0.34129529
0.3432426
0.026337844
0.015347
0.0063194367
0.0012175871
0.0012203515
0.0063604013
0.01545027
0.026509409
0.34525418
0.34733357
0.026685874
0.015556434
0.0064025459
0.00122321
0.0012261773
0.0064460556
0.015665815
0.026867514
0.34948159
0.35170253
0.027054386
0.015778287
0.0064908257
0.0012292505
0.0012324451
0.0065370354
0.015894158
0.027246778
0.35399885
0.35637604
0.027444757
0.016013335
0.0065845925
0.0012357609
0.0012392164
0.0066336609
0.016136123
0.027648671
0.35883781
0.36139114
0.02785883
0.016262576
0.0066842195
0.0012428164
0.0012465809
0.0067364192
0.016392993
0.028075585
0.3640428
0.36680174
0.028299318
0.016527483
0.0067902621
0.0012505206
0.0012546562
0.0068459127
0.016666378
0.028530494
0.36967512
0.37267386
0.02876948
0.016809784
0.0069033647
0.0012590006
0.0012635808
0.0069627979
0.016958094
0.029016857
0.37580866
0.37909286
0.029273164
0.017111518
0.0070242506
0.0012684145
0.001273532
0.007087862
0.017270429
0.02953907
0.38254037
0.38616903
0.029815124
0.017435029
0.0071536623
0.0012789595
0.001284736
0.0072217295
0.017605643
0.030102012
0.38999912
0.39405695
0.030400414
0.017782476
0.0072920584
0.001290904
0.0012975192
0.0073646477
0.0179658
0.030711161
0.39837521
0.4029987
0.031034908
0.018155671
0.007439361
0.00130465
0.0013123899
0.00751607
0.018352224
0.031372509
0.40798647
0.41342054
0.031724508
0.018555254
0.0075944592
0.0013208511
0.0013301836
0.0076741312
0.018764195
0.032090783
0.419412
0.42611942
0.032470316
0.018977926
0.0077544865
0.0013406202
0.0013525466
0.0078350825
0.019196116
0.032862533
0.43377495
0.4427002
0.033268842
0.019420575
0.007916138
0.0013664558
0.0013838696
0.0080068714
0.01966184
0.03371123
0.45343762
0.46745507
0.034350599
0.020009159
0.0081392875
0.0014091577
0.001445857
0.008311463
0.020643823
0.035537129
0.48660983
0.51541458
0.037978499
0.02206831
0.0089092041
0.0014871006
0.0015062038
0.0089766077
0.021985712
0.037255402
0.53643538
0.55424195
0.041353853
0.024236266
0.0098221408
0.0015512051
0.0015458435
0.010380891
0.025895509
0.044819197
0.55341979
0.59234735
0.037270418
0.022398518
0.0092382682
0.00150322
0.001506807
0.0095111598
0.023594023
0.040856166
0.56309814
0.55962214
0.039851118
0.023112599
0.0093460422
0.0014968654
0.0014658079
0.0087430404
0.021085101
0.034872928
0.59117251
0.55514289
0.039305534
0.023149195
0.0094493624
0.0015142478
0.0015359931
0.009686952
0.023844602
0.040631227
0.55619217
0.59422604
0.037305738
0.022372461
0.0092032518
0.0015037297
0.0015213158
0.0096487916
0.024012982
0.041677024
0.56111777
0.54039301
0.037722643
0.022158864
0.008993222
0.0014871536
0.0014676869
0.008802837
0.021734434
0.037235721
0.5181938
0.4905702
0.0350988
0.020461315
0.0082803818
0.0014328777
0.0013971369
0.00806642
0.019764895
0.033847271
0.47043992
0.45579208
0.033165767
0.019388043
0.0079236189
0.0013722788
0.0013551888
0.0078246623
0.019130577
0.032700424
0.44454693
0.435224
0.032288937
0.018901809
0.0077383151
0.0013414019
0.0013297198
0.0076556983
0.018682755
0.031897476
0.42724794
0.42027932
0.031519316
0.0184685
0.0075738489
0.0013195503
0.0013104458
0.0074927173
0.018258558
0.031153484
0.41406912
0.40844679
0.030800965
0.018053988
0.0074128172
0.0013021557
0.0012945388
0.0073347093
0.017855774
0.030462411
0.40329548
0.39853067
0.030137844
0.017664405
0.0072587819
0.0012874932
0.0012809417
0.0071852633
0.017479971
0.029826646
0.39409062
0.38992924
0.029528271
0.017302405
0.0071142418
0.0012748214
0.0012690861
0.0070457444
0.017131472
0.029241859
0.3860111
0.38230842
0.028966817
0.016966912
0.0069797061
0.0012636929
0.0012586107
0.0069160647
0.016808371
0.028702255
0.37879832
0.37546241
0.028447618
0.016655536
0.0068546914
0.0012538078
0.0012492623
0.0067954928
0.016508042
0.0282021
0.37228407
0.36925014
0.027965287
0.016365593
0.0067383163
0.0012449484
0.0012408493
0.0066830886
0.016227854
0.027736392
0.36634736
0.36356584
0.027515135
0.016094567
0.0066296536
0.0012369432
0.0012332169
0.0065779543
0.015965437
0.027300797
0.36089475
0.35832641
0.027093335
0.01584033
0.0065278736
0.0012296514
0.0012262371
0.0064793693
0.015718951
0.026891979
0.35585367
0.35346937
0.026696763
0.015601182
0.0064323213
0.0012229571
0.0012198061
0.0063867245
0.015486809
0.026507039
0.35116715
0.34894413
0.02632298
0.015375773
0.006342471
0.0012167698
0.0012138465
0.0062995822
0.015267885
0.026143941
0.34679385
0.34471687
0.025970296
0.015163152
0.0062579493
0.0012110239
0.0012083019
0.0062175955
0.015061338
0.02580122
0.34270542