/*--------------------------------*- C++ -*----------------------------------*\
  =========                 |
  \\      /  F ield         | OpenFOAM: The Open Source CFD Toolbox
   \\    /   O peration     | Website:  https://openfoam.org
    \\  /    A nd           | Version:  7
     \\/     M anipulation  |
\*---------------------------------------------------------------------------*/
FoamFile
{
    version     2.0;
    format      ascii;
    class       volScalarField;
    location    "310";
    object      omega;
}
// * * * * * * * * * * * * * * * * * * * * * * * * * * * * * * * * * * * * * //

dimensions      [0 0 -1 0 0 0 0];

internalField   nonuniform List<scalar> 
24789
(
96689.453
30096.629
16951.599
12418.741
2051.5934
2059.2214
12456.249
16996.323
30156.355
96887.016
97092.047
30218.615
17042.86
12495.248
2067.0403
2075.0331
12535.437
17091.015
30283.445
97303.843
97523.718
30350.971
17141.066
12577.163
2083.211
2091.5709
12620.207
17192.885
30421.287
97751.106
97987.3
30494.589
17246.772
12664.902
2100.1313
2108.8917
12711.087
17302.651
30571.044
98232.008
98486.431
30650.867
17360.819
12759.078
2117.8669
2127.0567
12808.77
17421.251
30734.265
98750.639
99026.177
30821.555
17484.259
12860.468
2136.4751
2146.1213
12914.095
17549.846
30912.986
99313.335
99613.779
31008.924
17618.331
12969.945
2156.0049
2166.1243
13028.001
17689.78
31109.684
99928.191
100258.4
31215.749
17764.555
13088.575
2176.4887
2187.1001
13151.7
17842.777
31327.517
100605.49
100971.48
31445.567
17924.832
13217.691
2197.9676
2209.0924
13286.67
18010.945
31570.4
101357.8
101766.78
31702.689
18101.553
13358.989
2220.4831
2232.1414
13434.862
18197.009
31843.158
102200.49
102662.11
31992.749
18297.87
13514.708
2244.0687
2256.2483
13598.87
18404.662
32152.454
103154.77
103683
32323.632
18518.137
13687.895
2268.6517
2281.214
13782.33
18639.121
32507.838
104252.12
104869.26
32707.207
18768.757
13882.973
2293.8275
2306.3063
13990.848
18908.497
32924.22
105542.88
106284.01
33162.689
19060.708
14107.695
2318.3728
2329.5716
14236.278
19229.097
33428.388
107109.34
108045.44
33728.208
19419.364
14381.177
2339.15
2346.1256
14551.652
19643.941
34070.475
109123.21
110449.08
34540.747
19936.333
14762.398
2348.6769
2338.6255
14986.273
20284.894
35234.922
112370.05
115152.37
35754.611
20517.346
15108.397
2302.2327
2232.4986
15053.953
20473.263
35721.428
117820.63
119805.38
36563.023
20966.709
15402.701
2203.5142
2193.5802
15558.236
21447.274
37800.376
125502.8
131402.27
39225.708
22027.277
15783.091
2245.784
2073.3218
15965.875
21635.399
37762.885
124283.74
121220.46
36649.416
21052.683
15559.741
2050.8715
2070.831
15658.99
21014.345
36423.092
117589.77
114034.59
35662.733
20702.801
15495.461
2099.9742
2117.2643
15255.868
20339.4
34997.514
111229.97
109369.45
34333.931
19962.387
14989.915
2120.1274
2115.9753
14762.683
19660.031
33861.646
108074.06
107015.84
33502.846
19426.329
14581.95
2109.3794
2101.1382
14431.619
19233.094
33203.297
106106.45
105306.75
32943.335
19065.3
14300.642
2091.7767
2081.8057
14183.176
18915.58
32712.866
104586.28
103928.53
32504.091
18778.931
14075.445
2071.5144
2061.0735
13975.169
18652.391
32312.565
103324.3
102766.57
32135.779
18534.334
13881.115
2050.6074
2040.1988
13792.446
18423.631
31971.744
102249.28
101767.6
31818.963
18319.479
13708.612
2029.9018
2019.7463
13629.085
18221.169
31676.159
101317.37
100895.48
31542.394
18128.204
13553.538
2009.7522
1999.9275
13481.559
18040.055
31416.753
100498.93
100125.43
31298.558
17956.377
13412.945
1990.2795
1980.8082
13347.348
17876.749
31187.131
99772.813
99439.293
31081.903
17800.923
13284.637
1971.5186
1962.4092
13224.505
17728.543
30982.392
99122.97
98822.472
30888.054
17659.433
13166.897
1953.4839
1944.7404
13111.514
17593.275
30798.52
98535.998
98262.653
30713.391
17529.981
13058.368
1936.1831
1927.8063
13007.154
17469.232
30632.295
98000.897
97750.079
30554.95
17411.006
12957.943
1919.6119
1911.5916
12910.421
17354.987
30481.022
97508.952
97277.109
30410.322
17301.206
12864.705
1903.7464
1896.0659
12820.47
17249.372
30342.626
97053.618
96838.391
30277.778
17199.568
12777.897
1888.5534
1881.1984
12736.64
17151.508
30215.625
96630.525
96430.125
30156.008
17105.298
12696.927
1874.0045
1866.9638
12658.43
17060.725
30098.96
96236.302
96049.041
30044.052
17017.819
12621.366
1860.0693
1866.9489
12659.422
17061.944
30100.529
96242.403
96435.885
30157.588
17106.514
12697.906
1873.9801
1881.1629
12737.626
17152.718
30217.143
96636.037
96844.164
30279.37
17200.836
12778.92
1888.5052
1896.0024
12821.555
17250.714
30344.31
97059.667
97283.701
30412.155
17302.645
12865.858
1903.6641
1911.4873
12911.653
17356.53
30483.006
97515.971
97757.837
30557.096
17412.666
12959.26
1919.4789
1927.6386
13008.562
17471.018
30634.634
98009.366
98272.031
30715.926
17531.894
13059.861
1935.9721
1944.4776
13113.099
17595.317
30801.26
98546.293
98833.77
30891.043
17661.629
13168.585
1953.1599
1962.0139
13226.306
17730.901
30985.618
99135.329
99452.859
31085.459
17803.475
13286.559
1971.0416
1980.2354
13349.395
17879.495
31190.976
99787.466
100141.27
31302.742
17959.347
13415.133
1989.5945
1999.1113
13483.883
18043.242
31421.257
100515.84
100913.6
31547.195
18131.602
13555.979
2008.7825
2018.5964
13631.614
18224.741
31681.199
101336.63
101788.1
31824.137
18323.16
13711.177
2028.5425
2038.6014
13794.98
18427.347
31976.974
102271.16
102789.94
32140.896
18537.962
13883.516
2048.7442
2058.9247
13977.314
18655.774
32317.356
103348.96
103954.06
32508.279
18781.896
14077.208
2069.0724
2079.0788
14184.439
18917.939
32716.094
104611.82
105330.74
32945.18
19066.966
14301.419
2088.7996
2097.9987
14432.395
19234.503
33203.694
106125.85
107027.5
33503.95
19429.405
14584.296
2106.2298
2112.9746
14769.557
19668.721
33868.895
108080.15
109372.86
34363.808
19986.093
15007.17
2117.6149
2116.2361
15293.072
20400.093
35097.928
111218.42
114141.41
35931.826
20784.878
15527.255
2097.7444
2063.9362
15590.011
20947.911
36366.052
117741.85
120676.06
36616.958
20997.194
15444.15
2044.3256
2061.4407
16368.515
21988.641
38128.535
122439.09
131845.06
39446.575
22125.76
15875.901
2235.7197
2158.2934
15323.248
21070.569
36901.491
121347.87
122420.23
36408.643
20487.673
14749.677
2191.4378
2229.748
15105.409
20608.372
36226.532
119560.91
115887.8
36093.002
20655.212
15208.98
2285.9582
2318.6454
15065.755
20363.166
35324.972
112705.63
110592.09
34570.98
19977.019
14817.773
2327.3557
2325.9447
14596.252
19670.707
34079.315
109138.83
107984.05
33705.949
19432.37
14416.79
2320.2283
2311.7056
14266.034
19234.255
33394.462
107016.16
106177.52
33125.223
19062.23
14134.31
2301.4397
2290.1995
14015.804
18908.351
32885.969
105429.42
104751.26
32668.744
18767.613
13906.868
2278.4413
2266.4459
13805.382
18637.203
32469.286
104130.64
103558.53
32284.935
18515.51
13710.178
2254.4041
2242.4314
13620.417
18401.362
32113.599
103027.89
102533.54
31953.761
18293.942
13535.553
2230.6007
2218.9527
13455.064
18192.541
31804.164
102070.99
101636.84
31663.744
18096.619
13378.609
2207.5134
2196.2925
13305.781
18005.649
31531.631
101227.92
100842.04
31407.091
17919.266
13236.362
2185.2995
2174.533
13170.006
17837.041
31289.464
100476.91
100130.83
31178.201
17758.733
13106.587
2163.999
2153.6921
13045.781
17683.954
31072.737
99801.793
99488.632
30972.633
17612.546
12987.535
2143.6177
2133.7686
12931.55
17544.176
30877.452
99189.623
98903.805
30786.824
17478.752
12877.835
2124.1496
2114.75
12826.079
17415.946
30700.375
98629.797
98367.017
30617.826
17355.731
12776.35
2105.573
2096.6053
12728.342
17297.814
30538.897
98114.242
97871.13
30463.337
17242.196
12682.161
2087.8484
2079.2866
12637.48
17188.588
30390.939
97636.638
97410.775
30321.509
17137.053
12594.47
2070.9233
2062.7407
12552.785
17087.303
30254.892
97192.521
96982.144
30190.969
17039.463
12512.661
2054.7467
2046.9303
12473.735
16993.244
30129.586
96778.829
96891.881
30157.301
16997.223
12457.022
2059.253
2067.0794
12496.06
17043.899
30219.956
97097.026
97309.97
30285.063
17092.33
12536.532
2075.0777
2083.2425
12578.235
17142.427
30352.797
97530.029
97758.452
30423.357
17194.494
12621.518
2091.5936
2100.1322
12666.193
17248.425
30496.848
97994.866
98240.598
30573.542
17304.543
12712.6
2108.8735
2117.8155
12760.597
17362.781
30653.579
98495.501
98760.907
30737.245
17423.454
12810.497
2126.9713
2136.3406
12862.216
17486.555
30824.773
99037.098
99325.722
30916.545
17552.407
12916.055
2145.9319
2155.7415
12971.967
17621.034
31012.785
99627.247
99943.403
31113.953
17692.776
13030.245
2165.7779
2176.0392
13090.912
17767.751
31220.43
100275.1
100624.3
31332.692
17846.305
13154.266
2186.5299
2197.2459
13220.401
17928.637
31451.267
100992.27
101381.28
31576.69
18015.129
13289.628
2208.1914
2219.3626
13362.122
18106.093
31709.662
101793.06
102230.39
31850.928
18202.01
13438.263
2230.7559
2242.3555
13518.325
18303.321
32001.362
102695.94
103193.57
32162.078
18410.656
13602.772
2254.1383
2266.0535
13692.033
18524.682
32334.355
103727.66
104304.17
32519.886
18646.309
13786.749
2278.0201
2289.8997
13887.635
18776.619
32720.716
104930.33
105615.65
32939.512
18917.166
13995.808
2301.484
2312.4659
14113.02
19070.37
33180.141
106371.92
107217.94
33449.107
19240.294
14242.261
2322.3749
2330.4333
14388.145
19432.898
33754.337
108184.83
109313.44
34104.658
19660.018
14559.37
2335.6111
2336.1584
14769.29
19952.697
34579.661
110717.45
112732.72
35271.504
20300.719
14991.844
2324.689
2288.171
15109.913
20537.432
35825.245
115678.98
118940.52
35906.018
20496.872
15019.708
2222.9828
2195.7591
15195.876
20854.899
36593.248
120850.05
125411.14
37804.463
21425.218
15519.456
2178.7344
2226.6708
15691.787
21941.635
39175.753
131640.92
2868.6885
14677.421
21398.729
39328.963
135095.71
130054.36
39711.916
22334.752
15883.394
2329.1489
2055.9359
16914.776
22998.304
40071.808
129202.14
124130.99
38202.618
21958.245
16054.815
2162.3412
2151.6261
15257.147
21074.995
37015.522
122319.15
121318.23
36381.79
20646.209
14995.391
2185.8855
2237.5132
15205.67
20696.169
36214.656
118509.32
115200.76
36070.395
20692.826
15252.396
2297.6232
2329.3927
15082.941
20373.576
35296.716
112260.08
110300.12
34561.122
19983.978
14827.771
2336.6288
2333.5321
14602.992
19675.676
34074.089
108941.45
107845.07
33700.521
19435.1
14421.16
2326.2743
2316.4737
14268.733
19235.478
33389.522
106915.6
106103.25
33120.585
19062.385
14135.795
2305.1758
2293.113
14016.408
18907.759
32881.597
105373.85
104708.91
32664.793
18766.61
13906.904
2280.7128
2268.2213
13805.069
18635.999
32465.746
104097.68
103532.59
32281.712
18514.192
13709.638
2255.793
2243.519
13619.748
18400.018
32110.71
103007.26
102516.86
31951.167
18292.622
13534.817
2231.4543
2219.6229
13454.298
18191.262
31801.805
102057.31
101625.55
31661.635
18095.412
13377.846
2208.0395
2196.7054
13305.04
18004.525
31529.759
101218.63
100834.35
31405.443
17918.235
13235.662
2185.6225
2174.7854
13169.35
17836.098
31288.001
100470.38
100125.27
31176.871
17757.855
13105.961
2164.1942
2153.8418
13045.191
17683.144
31071.545
99797.103
99484.638
30971.565
17611.8
12986.983
2143.7306
2133.8519
12931.038
17543.491
30876.488
99186.196
98900.92
30785.947
17478.121
12877.358
2124.2086
2114.7904
12825.644
17415.379
30699.607
98627.33
98364.869
30617.156
17355.225
12775.955
2105.5989
2096.6193
12727.976
17297.35
30538.288
98112.299
97869.38
30462.79
17241.775
12681.826
2087.8531
2079.2835
12637.169
17188.198
30390.433
97635.02
97409.282
30321.039
17136.693
12594.182
2070.913
2062.7222
12552.516
17086.966
30254.443
97191.132
96980.898
30190.536
17039.145
12512.411
2054.718
2046.8916
12473.507
16992.955
30129.204
96777.801
96236.965
30098.774
17060.777
12658.533
1866.8842
1873.9336
12696.958
17105.375
30156.079
96430.795
96631.877
30215.804
17151.75
12736.865
1881.1378
1888.4923
12778.012
17199.763
30278.061
96839.643
97055.333
30342.973
17249.694
12820.74
1896.0077
1903.6828
12864.856
17301.445
30410.675
97278.634
97510.795
30481.4
17355.316
12910.691
1911.5289
1919.545
12958.1
17411.243
30555.302
97751.75
98002.888
30632.66
17469.541
13007.403
1927.7403
1936.1153
13058.509
17530.195
30713.719
98264.446
98537.955
30798.835
17593.531
13111.721
1944.6766
1953.4234
13167.007
17659.601
30888.328
98824.089
99124.541
30982.605
17728.73
13224.661
1962.3592
1971.4822
13284.705
17801.023
31082.052
99440.372
99773.543
31187.215
17876.853
13347.447
1980.7951
1990.2949
13412.96
17956.389
31298.53
100125.32
100497.92
31416.6
18040.028
13481.573
1999.9834
2009.858
13553.45
18128.044
31542.016
100893.16
101313.77
31675.557
18220.907
13628.954
2019.9184
2030.158
13708.343
18319.021
31818.027
101762.24
102242.02
31970.418
18422.964
13792.063
2040.5653
2051.118
13880.543
18533.368
32133.938
102756.83
103311.43
32310.146
18651.121
13974.44
2061.7754
2072.4675
14074.578
18777.358
32501.01
103911.31
104563.12
32709.336
18913.93
14182.385
2083.0864
2093.4641
14300.283
19064.021
32939.823
105275.09
106063.02
33200.674
19232.999
14432.359
2103.3038
2112.0498
14584.924
19428.98
33503.129
106956.48
107996.04
33867.663
19667.485
14769.331
2119.0288
2123.2244
15002.22
19978.027
34350.508
109266.31
111082.95
35041.786
20369.73
15276.198
2119.8178
2099.6687
15514.78
20737.493
35767.068
113867.87
117085.91
36329.165
21007.116
15678.291
2066.3535
2044.2881
15736.834
21177.978
36693.813
120383
124654.15
37942.849
21731.612
16032.627
2064.5877
2239.4146
15619.496
22020.903
39476.248
132601.87
126802.94
37983.09
21453.389
15486.309
2189.288
2202.5089
15586.482
21168.426
36869.148
119844.03
118436.06
35800.042
20472.948
14988.136
2232.3441
2300.6193
15100.619
20524.403
35823.241
115530.23
112587.89
35276.044
20298.918
14992.009
2337.07
2348.4064
14771.81
19951.645
34571.569
110565.85
109177.42
34084.888
19653.038
14558.268
2346.5206
2339.768
14384.643
19423.613
33734.55
108069.41
107119.23
33430.067
19230.391
14237.619
2330.2032
2318.9454
14107.928
19060.605
33162.361
106287.14
105542.72
32923.213
18907.882
13990.632
2306.8001
2294.2383
13882.601
18768.016
32706.014
104867.46
104249.76
32506.752
18638.452
13781.973
2281.5495
2268.9203
13687.577
18517.571
32322.69
103680.42
103152.33
32151.717
18404.247
13598.65
2256.4623
2244.2354
13514.53
18297.551
31992.171
102659.82
102198.65
31842.737
18196.807
13434.772
2232.2706
2220.5784
13358.905
18101.392
31702.361
101765.16
101356.77
31570.188
18010.871
13286.658
2209.1611
2198.0107
13217.66
17924.769
31445.437
100970.82
100605.36
31327.465
17842.784
13151.735
2187.126
2176.4981
13088.565
17764.535
31215.72
100258.38
99928.537
31109.716
17689.837
13028.069
2166.1262
2155.9979
12969.952
17618.346
31008.972
99614.075
99313.939
30913.078
17549.942
12914.193
2146.1137
2136.4623
12860.489
17484.296
30821.646
99026.621
98751.369
30734.378
17421.367
12808.889
2127.0462
2117.8537
12759.099
17360.857
30650.963
98486.856
98232.62
30571.139
17302.767
12711.213
2108.8843
2100.1223
12664.914
17246.801
30494.67
97987.646
97751.708
30421.36
17192.997
12620.338
2091.5694
2083.2074
12577.148
17141.059
30350.996
97523.892
97304.162
30283.385
17091.063
12535.534
2075.0394
2067.0451
12495.143
17042.737
30218.439
97091.619
96886.578
30155.957
16996.184
12456.215
2059.2309
2059.2421
12457.354
16997.68
30158.172
96893.542
97098.25
30220.445
17044.233
12496.352
2067.0657
2075.0549
12536.574
17092.42
30285.3
97310.178
97530.29
30352.918
17142.545
12578.349
2083.2247
2091.5738
12621.479
17194.478
30423.396
97758.187
97994.865
30496.892
17248.495
12666.265
2100.1156
2108.8525
12712.559
17304.521
30573.559
98240.206
98495.339
30653.61
17362.849
12760.66
2117.7971
2126.9492
12810.479
17423.46
30737.291
98760.454
99036.861
30824.854
17486.648
12862.293
2136.32
2145.9092
12916.057
17552.435
30916.584
99325.012
99626.454
31012.855
17621.146
12972.056
2155.7227
2165.7596
13030.292
17692.859
31114.01
99942.092
100273.48
31220.516
17767.925
13091.051
2176.0278
2186.5258
13154.4
17846.489
31332.781
100621.82
100988.95
31451.351
17928.92
13220.638
2197.258
2208.224
13289.9
18015.465
31576.773
101376.4
101786.51
31709.705
18106.547
13362.52
2219.4274
2230.8632
13438.72
18202.521
31850.834
102221.29
102683.76
32001.091
18303.933
13518.912
2242.5257
2254.397
13603.449
18411.322
32161.498
103177.08
103705.59
32333.362
18525.442
13692.875
2266.4438
2278.6017
13787.785
18647.168
32518.316
104274.41
104890.43
32718.486
18777.714
13889.04
2290.761
2302.7411
13997.848
18918.758
32936.606
105562.24
106301.43
33177.072
19073.129
14116.299
2314.269
2324.8967
14247.802
19245.509
33447.252
107126.82
108071.94
33757.519
19443.037
14397.662
2333.8507
2340.0449
14574.937
19678.821
34123.538
109184.36
110569.02
34609.621
19981.062
14792.195
2341.6797
2331.6962
15027.863
20350.573
35332.113
112566.43
115589.03
36041.837
20614.055
15152.144
2294.4809
2226.6388
15029.789
20499.435
35910.547
118736.89
120640.36
36595.225
20809.432
15113.031
2196.001
2178.8918
15728.579
21589.327
37866.854
124028.66
1018.1936
607.98454
820.64189
2058.1447
15952.997
21625.435
37782.657
124553.09
123421.21
37115.49
21051.655
15177.364
2163.6679
133006.5
39228.648
21529.477
14888.302
2878.1156
3194.5456
15202.425
21829.926
39448.101
131668.62
132462.17
40001.032
22039.58
15287.532
3205.4563
2503.2886
15351.508
21762.796
38912.017
128623.82
1472.0119
1267.7331
677.56104
840.8091
180.65642
191.01672
189.48504
180.65612
179.70605
184.55029
184.60417
179.35168
96779.304
30129.536
16993.281
12473.786
2047.0747
2054.8788
12512.56
17039.377
30190.876
96981.852
97192.383
30254.72
17087.271
12552.811
2062.8753
2071.056
12594.318
17136.857
30321.238
97409.993
97635.92
30390.587
17188.434
12637.427
2079.4341
2088.0066
12681.943
17241.884
30462.865
97869.771
98112.835
30538.351
17297.529
12728.201
2096.7871
2105.7762
12776.067
17355.307
30617.172
98364.948
98627.543
30699.629
17415.538
12825.862
2114.9876
2124.4219
12877.494
17478.21
30785.936
98900.686
99186.034
30876.489
17543.66
12931.276
2134.0888
2143.9868
12987.172
17611.931
30971.566
99484.155
99796.764
31071.588
17683.358
13045.482
2154.1231
2164.4973
13106.227
17758.057
31176.936
100124.67
100469.94
31288.143
17836.404
13169.721
2175.1141
2185.972
13236.06
17918.588
31405.683
100833.85
101218.54
31530.18
18005.03
13305.579
2197.0763
2208.4264
13378.458
18096.033
31662.267
101625.77
102058.13
31802.725
18192.098
13455.087
2220.0229
2231.8579
13535.766
18293.681
31952.413
102518.09
103009.22
32112.462
18401.448
13620.983
2243.9158
2256.1592
13711.201
18516.079
32284.095
103535.24
104101.36
32469.024
18638.556
13807.127
2268.5244
2280.895
13909.605
18770.083
32669.318
104713.88
105381.3
32887.936
18912.499
14019.981
2293.083
2304.7855
14140.389
19068.745
33129.482
106115.13
106935.74
33401.765
19243.619
14274.28
2315.4971
2324.3882
14426.82
19444.403
33716.179
107879.01
108994.23
34092.9
19684.152
14606.368
2330.3661
2331.5812
14821.208
19984.202
34582.979
110383.44
112414.57
35263.157
20325.18
15038.828
2320.1385
2283.9961
15140.39
20539.019
35796.236
115350.94
118303.14
35860.877
20501.711
15045.307
2224.1089
2193.1728
15272.956
20840.689
36482.77
120072.93
123101.77
36988.295
20988.79
15145.642
2176.8045
16927.734
23118.916
40517.962
130515.77
127745.42
40788.302
23483.381
17344.665
2096.9154
2390.3468
16611.551
23025.217
40405.847
126973.6
127688.67
38629.411
21677.595
15279.807
2536.8498
2193.2967
15960.458
21921.783
38155.037
123469.79
123101.53
36986.938
20987.181
15144.015
2175.7691
2192.3412
15271.285
20839.256
36481.77
120072.8
118301.98
35859.817
20500.416
15043.888
2223.4114
2283.3894
15139.124
20537.717
35794.89
115348.8
112411.28
35261.867
20323.99
15037.683
2319.6126
2331.1152
14820.097
19982.998
34581.554
110379.82
108990.35
34091.336
19682.917
14605.266
2329.9436
2323.9982
14425.732
19443.17
33714.623
107875.18
106932.04
33400.244
19242.403
14273.21
2315.1306
2304.4345
14139.329
19067.537
33127.992
106111.73
105378.25
32886.5
18911.309
14018.936
2292.7441
2280.5641
13908.573
18768.909
32667.935
104711.24
104099.11
32467.699
18637.407
13806.113
2268.2002
2255.8426
13710.212
18514.969
32282.862
103533.31
103007.51
32111.305
18400.383
13620.029
2243.609
2231.5634
13534.856
18292.677
31951.364
102516.55
102056.59
31801.732
18191.144
13454.224
2219.7432
2208.1631
13377.639
18095.134
31661.354
101624.2
101216.9
31529.327
18004.182
13304.803
2196.8315
2185.7462
13235.335
17917.8
31404.906
100832.05
100467.93
31287.396
17835.656
13169.037
2174.9085
2164.312
13105.576
17757.348
31176.213
100122.48
99794.269
31070.877
17682.674
13044.86
2153.958
2143.838
12986.574
17611.265
30970.849
99481.511
99183.154
30875.766
17543.007
12930.699
2133.9555
2124.302
12876.931
17477.574
30785.236
98897.712
98624.35
30698.892
17414.897
12825.304
2114.8805
2105.6787
12775.515
17354.677
30616.457
98361.753
98109.51
30537.6
17296.888
12727.651
2096.6971
2087.9206
12681.387
17241.239
30462.128
97866.449
97632.505
30389.802
17187.77
12636.869
2079.3522
2070.974
12593.752
17136.188
30320.446
97406.6
97188.877
30253.892
17086.582
12552.243
2062.7924
2054.7879
12511.976
17038.66
30189.995
96978.28
96775.079
30128.691
16992.589
12473.233
2046.9748
2039.3166
12435.551
16947.952
30069.586
96578.317
2059.3371
12456.584
16996.667
30156.592
96889.591
97094.452
30219.13
17043.342
12495.673
2067.1521
2075.136
12535.872
17091.501
30283.965
97306.372
97526.359
30351.525
17141.561
12577.606
2083.3104
2091.6701
12620.637
17193.361
30421.816
97753.756
97989.937
30495.111
17247.234
12665.323
2100.2316
2108.996
12711.485
17303.079
30571.514
98234.515
98488.837
30651.283
17361.219
12759.458
2117.978
2127.178
12809.126
17421.611
30734.612
98752.865
99028.05
30821.849
17484.585
12860.803
2136.6108
2146.2771
12914.41
17550.134
30913.182
99314.795
99614.736
31009.029
17618.585
12970.247
2156.1853
2166.3345
13028.295
17690.003
31109.701
99928.528
100258.05
31215.65
17764.734
13088.852
2176.7365
2187.3913
13151.969
17842.926
31327.324
100604.34
100969.41
31445.254
17924.952
13217.962
2198.3077
2209.4879
13286.937
18011.023
31569.951
101354.81
101762.94
31702.138
18101.59
13359.244
2220.9415
2232.6671
13435.095
18196.986
31842.465
102195.88
102656.8
31991.914
18297.777
13514.914
2244.6664
2256.9244
13599.039
18404.47
32151.44
103148.94
103676.99
32322.433
18517.832
13688.013
2269.4146
2282.0713
13782.419
18638.727
32506.529
104246.29
104864.19
32705.851
18768.326
13883.087
2294.7859
2307.37
13991.126
18908.205
32923.084
105539.7
106284.68
33162.284
19060.932
14108.434
2319.5369
2330.8171
14238.1
19230.682
33429.981
107117.29
108067.98
33734.383
19423.837
14385.091
2340.4133
2347.2181
14558.682
19653.181
34084.563
109176.27
110564.85
34571.136
19951.726
14772.214
2349.1871
2337.9773
14992.426
20298.954
35275.448
112586.41
115527.74
35822.605
20524.412
15101.089
2301.7065
2233.6879
14988.685
20473.394
35800.141
118433.61
119834.3
36868.553
21169.252
15587.83
2204.0518
2191.1582
15489.155
21456.459
37987.103
126780.56
132580.3
39502.911
22025.087
15619.988
2241.5797
2066.4376
16033.351
21733.572
37947.231
124642.19
122310.77
37019.726
21076.104
15256.193
2153.612
2159.867
15324.868
21070.507
36896.14
121304.27
122415.29
38128.341
21986.242
16366.852
2062.928
2180.1726
15726.384
21585.576
37864.806
124007.3
125399.45
37798.477
21418.512
15515.454
2179.4759
2058.7431
15948.355
21618.555
37776.548
124553.06
123410.37
37108.314
21047.074
15174.707
2163.6539
2184.7797
15397.129
20957.962
36615.991
119750.74
118022.58
35835.485
20513.462
15065.061
2215.9741
2275.963
15122.242
20509.886
35740.801
115254.71
112361.59
35256.655
20318.624
15031.592
2315.1473
2328.1513
14819.367
19984.44
34585.947
110358.18
108983.09
34096.415
19685.891
14606.408
2327.8032
2322.364
14427.425
19446.339
33719.452
107874.7
106935.77
33404.308
19245.179
14274.83
2313.8017
2303.3059
14140.71
19069.845
33131.426
106118.38
105386.63
32889.511
18913.26
14020.11
2291.7692
2279.7213
13909.607
18770.62
32670.656
104720.34
104108.29
32470.196
18638.945
13807.053
2267.4747
2255.2231
13711.084
18516.372
32285.147
103542.17
103015.8
32113.404
18401.669
13620.844
2243.0833
2231.1204
13535.616
18293.852
31953.265
102524.21
102063.56
31803.459
18192.217
13454.929
2219.3719
2207.8536
13378.292
18096.11
31662.903
101630.51
101222.49
31530.73
18005.073
13305.409
2196.5762
2185.5359
13235.886
17918.595
31406.128
100837.05
100472.36
31288.492
17836.377
13169.544
2174.7366
2164.1728
13106.042
17758.003
31177.206
100126.34
99797.655
31071.75
17683.265
13045.288
2153.8465
2143.7508
12986.969
17611.805
30971.642
99484.453
99185.685
30876.485
17543.503
12931.064
2133.8894
2124.254
12877.263
17478.017
30785.857
98899.85
98626.219
30699.453
17415.299
12825.607
2114.8462
2105.6538
12775.789
17355.03
30616.931
98363.42
98111.024
30538.054
17297.215
12727.903
2096.68
2087.9097
12681.62
17241.536
30462.533
97867.819
97633.71
30390.167
17188.043
12637.084
2079.3462
2070.9713
12593.956
17136.44
30320.779
97407.707
97189.917
30254.193
17086.814
12552.433
2062.7888
2054.7797
12512.146
17038.861
30190.242
96979.28
96776.26
30128.838
16992.726
12473.359
2046.9542
2039.2922
12435.661
16948.082
30069.8
96579.783
2047.0318
12473.875
16993.422
30129.77
96780.12
96983.151
30191.164
17039.652
12512.817
2054.8507
2062.8494
12552.943
17087.469
30255.049
97193.294
97411.477
30321.638
17137.192
12594.608
2071.0362
2079.4083
12637.613
17188.705
30391.031
97637.232
97871.664
30463.411
17242.294
12682.276
2087.9788
2096.7478
12728.451
17297.889
30538.928
98114.636
98367.365
30617.83
17355.792
12776.448
2105.7292
2114.9238
12826.181
17415.997
30700.359
98629.954
98903.802
30786.799
17478.803
12877.939
2124.3423
2133.9846
12931.67
17544.229
30877.407
99189.343
99488.072
30972.595
17612.619
12987.673
2143.859
2153.9633
13045.956
17684.057
31072.717
99800.874
100129.63
31178.221
17758.883
13106.803
2164.3019
2174.8736
13170.28
17837.246
31289.533
100475.43
100840.16
31407.23
17919.547
13236.709
2185.6834
2196.7307
13306.23
18006.038
31531.86
101225.45
101633.57
31664.129
18097.165
13379.195
2208.0173
2219.539
13455.847
18193.31
31804.761
102066.55
102527.39
31954.673
18295.034
13536.613
2231.2891
2243.2486
13621.864
18402.896
32114.89
103019.05
103545.71
32286.771
18517.689
13712.178
2255.3836
2267.6272
13808.175
18640.314
32471.902
104111.97
104724.19
32672.488
18772.074
13910.795
2279.8659
2291.9051
14021.345
18914.787
32891.432
105390.41
106122.05
33133.443
19071.464
14142.022
2303.4346
2313.9254
14276.232
19246.91
33406.397
106939.01
107877.37
33721.731
19448.275
14428.99
2322.4861
2327.9211
14608.193
19688.138
34099.084
108985.16
110360.2
34589.278
19987.034
14821.385
2328.2562
2315.2406
15033.847
20321.517
35259.964
112363.35
115258.06
35745.016
20513.308
15124.653
2276.0004
2216.0739
15067.567
20517.277
35841.281
118025.21
119753.64
36622.619
20962.206
15399.768
2184.8406
2036.4038
15843.812
21215.916
36654.135
119623.43
116770.61
35888.632
20792.483
15560.092
2040.7384
2079.5408
15415.145
20599.906
35525.781
113853.55
111211.63
34971.906
20299.568
15215.436
2102.9755
2109.2305
14969.696
19944.099
34322.419
109433.88
108177.56
33866.247
19654.367
14753.9
2107.3261
2102.4645
14579.787
19427.839
33515.084
107123.03
106204.62
33217.493
19237.724
14432.733
2095.5676
2087.2693
14303.187
19070.963
32957.088
105392.59
104659.97
32725.353
18921.34
14186.263
2078.1516
2068.5459
14078.638
18784.4
32515.119
103991.3
103377.83
32322.286
18657.481
13978.323
2058.6611
2048.6478
13884.141
18539.023
32144.328
102812.18
102288.28
31979.32
18427.972
13795.36
2038.6114
2028.6172
13711.357
18323.466
31825.667
101801.01
101346.26
31682.157
18224.873
13631.714
2018.7111
2008.919
13555.988
18131.598
31547.735
100920.44
100520.71
31421.544
18043.218
13483.911
1999.2612
1989.7478
13415.116
17959.273
31302.87
100144.44
99789.639
31191.02
17879.461
13349.434
1980.3897
1971.1904
13286.548
17803.403
31085.436
99454.073
99136.238
30985.588
17730.888
13226.364
1962.1576
1953.2926
13168.577
17661.567
30890.988
98834.254
98546.81
30801.195
17595.315
13113.169
1944.6024
1936.0852
13059.852
17531.836
30715.861
98272.267
98009.809
30634.594
17471.044
13008.651
1927.745
1919.5763
12959.261
17412.627
30557.057
97758.036
97516.431
30482.987
17356.584
12911.77
1911.5812
1903.7507
12865.859
17302.616
30412.132
97283.859
97060.082
30344.277
17250.768
12821.675
1896.088
1888.5829
12778.882
17200.759
30279.266
96844.108
96636.008
30216.898
17152.664
12737.674
1881.2381
1874.0431
12697.696
17106.209
30157.061
96434.91
96241.136
30099.521
17061.47
12659.173
1867.008
1867.0659
12658.982
17061.348
30099.581
96239.932
96433.297
30156.75
17105.973
12697.505
1874.0995
1881.2898
12737.206
17152.143
30216.282
96633.442
96841.297
30278.422
17200.182
12778.442
1888.6432
1896.1567
12821.009
17249.969
30343.231
97056.427
97279.939
30410.908
17301.784
12865.228
1903.84
1911.6911
12910.941
17355.549
30481.583
97511.613
97752.68
30555.479
17411.548
12958.448
1919.7189
1927.9229
13007.657
17469.763
30632.802
98003.338
98264.961
30713.858
17530.495
13058.858
1936.3111
1944.8829
13112.004
17593.774
30798.944
98538.063
98824.288
30888.443
17659.929
13167.391
1953.6426
1962.5872
13225.014
17729.036
30982.732
99124.487
99440.515
31082.263
17801.43
13285.16
1971.7186
1981.0316
13347.89
17877.265
31187.451
99773.647
100125.98
31298.876
17956.915
13413.513
1990.527
2000.1998
13482.158
18040.618
31417.078
100499.12
100895.47
31542.736
18128.792
13554.159
2010.0492
2020.0671
13629.736
18221.784
31676.527
101317.15
101767.28
31819.348
18320.117
13709.288
2030.2455
2040.5653
13793.155
18424.303
31972.182
102248.99
102766.43
32136.278
18535.036
13881.85
2050.9956
2061.484
13975.928
18653.122
32313.136
103324.32
103928.86
32504.709
18779.683
14076.224
2071.9473
2082.2632
14183.971
18916.35
32713.553
104586.95
105307.79
32944.073
19066.082
14301.452
2092.2622
2101.6601
14432.446
19233.886
33204.086
106107.84
107017.6
33503.688
19427.14
14582.8
2109.9466
2116.5989
14763.552
19660.84
33862.505
108076.14
109371.62
34334.678
19963.183
14990.806
2120.822
2118.045
15256.777
20340.195
34998.32
111232.21
114035.75
35663.105
20703.5
15496.388
2100.8643
2071.8513
15660.172
21015.261
36423.476
117588.88
121217.15
36650.244
21054.081
15561.464
2052.0328
2074.6785
15968.036
21637.762
37766.663
124274.75
131384.99
39250.554
22031.091
15783.829
2247.4501
2195.0993
15560.81