/*--------------------------------*- C++ -*----------------------------------*\
  =========                 |
  \\      /  F ield         | OpenFOAM: The Open Source CFD Toolbox
   \\    /   O peration     | Website:  https://openfoam.org
    \\  /    A nd           | Version:  7
     \\/     M anipulation  |
\*---------------------------------------------------------------------------*/
FoamFile
{
    version     2.0;
    format      ascii;
    class       volScalarField;
    location    "210";
    object      p;
}
// * * * * * * * * * * * * * * * * * * * * * * * * * * * * * * * * * * * * * //

dimensions      [1 -1 -2 0 0 0 0];

internalField   nonuniform List<scalar> 
24789
(
101300.58
101300.59
101300.59
101300.59
101300.47
101299.07
101299.21
101299.21
101299.21
101299.21
101297.75
101297.75
101297.76
101297.75
101297.61
101296.06
101296.21
101296.22
101296.21
101296.21
101294.57
101294.58
101294.58
101294.57
101294.42
101292.67
101292.83
101292.84
101292.84
101292.83
101290.98
101290.98
101290.98
101290.97
101290.81
101288.81
101288.98
101288.99
101288.99
101288.99
101286.85
101286.85
101286.85
101286.84
101286.67
101284.36
101284.53
101284.53
101284.54
101284.54
101282.03
101282.03
101282.02
101282.02
101281.86
101279.12
101279.27
101279.28
101279.28
101279.28
101276.26
101276.26
101276.25
101276.24
101276.12
101272.81
101272.88
101272.89
101272.9
101272.91
101269.15
101269.15
101269.14
101269.12
101269.12
101264.98
101264.89
101264.9
101264.92
101264.92
101260.11
101260.11
101260.1
101260.09
101260.31
101254.96
101254.59
101254.59
101254.6
101254.6
101248.3
101248.31
101248.3
101248.3
101248.86
101241.83
101241.07
101241.05
101241.05
101241.04
101232.64
101232.66
101232.68
101232.72
101233.7
101224.24
101223.04
101222.96
101222.93
101222.88
101211.48
101211.55
101211.62
101211.74
101213.18
101200.14
101198.45
101198.28
101198.16
101198.06
101182.05
101182.2
101182.38
101182.62
101184.58
101165.79
101163.5
101163.18
101162.92
101162.71
101139.72
101139.99
101140.35
101140.78
101143.42
101115.89
101113.15
101112.58
101112.1
101111.74
101072.81
101073.28
101073.92
101074.62
101077.01
101035.33
101031.91
101030.89
101029.99
101029.42
101012.38
101012.99
101014.54
101016.5
101024.46
100920.83
100915.09
100913.33
100912.48
100911.35
100318.52
100341.64
100357.58
100376.59
100551.94
100875.64
100824.19
100814.17
100804.65
100790.99
100971.76
100985.94
100991.88
100999.39
101028.24
101188.55
101148.39
101138.62
101128.34
101111.34
101479.89
101506.94
101528.82
101547.46
101554.37
101126.94
100936.53
100915.67
100899.31
100872.26
101019.77
101025.05
101025.43
101025.58
101036.94
100794.48
100571.31
100544.04
100517.95
100483.9
100493.23
100501.64
100505.56
100513.46
100615.21
100927.47
100920.48
100919.28
100918.62
100918.18
101011.01
101011.73
101013.08
101014.72
101022.48
101035.24
101032.88
101032.02
101031.26
101030.74
101073.98
101074.37
101074.92
101075.53
101077.56
101116.8
101114.13
101113.64
101113.22
101112.92
101140.82
101141.04
101141.33
101141.71
101144.43
101166.66
101164.23
101163.94
101163.73
101163.57
101182.64
101182.75
101182.9
101183.11
101185.24
101200.61
101198.76
101198.61
101198.51
101198.43
101211.7
101211.76
101211.82
101211.92
101213.5
101224.47
101223.13
101223.07
101223.03
101222.99
101232.68
101232.71
101232.72
101232.76
101233.86
101241.93
101241.07
101241.05
101241.05
101241.03
101248.27
101248.28
101248.27
101248.28
101248.92
101255
101254.56
101254.56
101254.57
101254.57
101260.08
101260.08
101260.06
101260.06
101260.31
101264.98
101264.86
101264.87
101264.88
101264.89
101269.12
101269.12
101269.11
101269.1
101269.11
101272.8
101272.88
101272.89
101272.89
101272.9
101276.25
101276.25
101276.24
101276.23
101276.11
101279.11
101279.27
101279.27
101279.28
101279.28
101282.03
101282.03
101282.03
101282.02
101281.84
101284.35
101284.53
101284.54
101284.54
101284.54
101286.85
101286.85
101286.85
101286.85
101286.66
101288.8
101288.99
101289
101289
101289
101290.99
101290.99
101290.99
101290.99
101290.8
101292.67
101292.85
101292.85
101292.85
101292.85
101294.59
101294.59
101294.6
101294.59
101294.41
101296.06
101296.23
101296.23
101296.23
101296.23
101297.77
101297.77
101297.77
101297.77
101297.6
101299.08
101299.24
101299.24
101299.24
101299.24
101300.65
101300.65
101300.65
101300.64
101300.48
101299.11
101299.24
101299.24
101299.24
101299.24
101297.8
101297.8
101297.8
101297.8
101297.63
101296.08
101296.25
101296.26
101296.26
101296.25
101294.62
101294.63
101294.63
101294.62
101294.44
101292.69
101292.88
101292.88
101292.88
101292.88
101291.03
101291.03
101291.03
101291.02
101290.83
101288.83
101289.03
101289.03
101289.03
101289.03
101286.89
101286.89
101286.89
101286.88
101286.69
101284.38
101284.57
101284.58
101284.58
101284.58
101282.08
101282.08
101282.07
101282.06
101281.87
101279.14
101279.31
101279.32
101279.32
101279.32
101276.29
101276.29
101276.29
101276.28
101276.14
101272.83
101272.92
101272.93
101272.94
101272.94
101269.18
101269.18
101269.16
101269.15
101269.15
101265.01
101264.91
101264.92
101264.93
101264.93
101260.14
101260.14
101260.13
101260.12
101260.35
101255.03
101254.62
101254.62
101254.63
101254.63
101248.35
101248.35
101248.34
101248.35
101248.96
101241.97
101241.15
101241.13
101241.13
101241.12
101232.78
101232.8
101232.81
101232.85
101233.9
101224.51
101223.23
101223.16
101223.14
101223.1
101211.79
101211.85
101211.9
101212
101213.53
101200.6
101198.8
101198.66
101198.57
101198.49
101182.68
101182.79
101182.92
101183.12
101185.22
101166.63
101164.2
101163.94
101163.74
101163.59
101140.73
101140.93
101141.2
101141.56
101144.31
101116.94
101114.15
101113.68
101113.3
101113.02
101074.9
101075.26
101075.78
101076.37
101078.51
101032.57
101030.78
101030.01
101029.31
101028.86
101004.47
101005.08
101006.35
101007.91
101015.52
100951.4
100944.66
100943.11
100942.13
100941.47
100564.85
100571.44
100572.72
100577.33
100635.11
100606.9
100202.71
100159.24
100119.81
100069.72
101672.66
101655.19
101639.41
101619.01
101393.22
101079.51
100938.09
100920.16
100907.55
100882.58
101431.59
101463.72
101486.75
101507.04
101502.98
101216.02
101265.05
101269.54
101273.37
101270.58
101549.01
101536.97
101524.37
101507.44
101357.37
100594.58
100262.15
100218.38
100176.28
100125.49
100500.7
100510.57
100513.63
100520.27
100596.15
100933.96
100926.77
100925.14
100924.45
100923.44
100999.31
100999.87
101001.07
101002.59
101009.05
101029.23
101027.05
101026.25
101025.5
101025.01
101072.61
101073.04
101073.6
101074.23
101076.4
101115.19
101112.71
101112.21
101111.79
101111.46
101139.61
101139.85
101140.16
101140.54
101142.89
101165.59
101163.55
101163.26
101163.03
101162.85
101182.19
101182.33
101182.49
101182.71
101184.48
101200.07
101198.53
101198.38
101198.27
101198.17
101211.57
101211.64
101211.71
101211.82
101213.15
101224.24
101223.13
101223.05
101223.02
101222.97
101232.71
101232.74
101232.75
101232.8
101233.72
101241.85
101241.12
101241.1
101241.1
101241.08
101248.33
101248.34
101248.33
101248.34
101248.88
101254.99
101254.62
101254.62
101254.63
101254.63
101260.15
101260.15
101260.13
101260.12
101260.34
101265.03
101264.93
101264.94
101264.96
101264.96
101269.18
101269.18
101269.17
101269.16
101269.17
101272.86
101272.92
101272.93
101272.94
101272.94
101276.29
101276.29
101276.28
101276.27
101276.17
101279.17
101279.3
101279.31
101279.31
101279.31
101282.06
101282.06
101282.05
101282.05
101281.9
101284.4
101284.56
101284.57
101284.57
101284.57
101286.87
101286.87
101286.87
101286.87
101286.71
101288.85
101289.01
101289.01
101289.02
101289.01
101291
101291.01
101291.01
101291
101290.84
101292.7
101292.86
101292.86
101292.86
101292.86
101294.6
101294.6
101294.6
101294.6
101294.45
101296.08
101296.22
101296.23
101296.22
101296.22
101297.76
101297.76
101297.76
101297.76
101297.63
101299.11
101299.2
101299.2
101299.2
101299.2
101299.19
101299.19
101299.19
101299.19
101299.08
101297.6
101297.75
101297.76
101297.75
101297.75
101296.21
101296.21
101296.22
101296.21
101296.06
101294.42
101294.59
101294.59
101294.59
101294.59
101292.85
101292.85
101292.85
101292.85
101292.68
101290.83
101291
101291
101291
101291
101289.02
101289.02
101289.02
101289.01
101288.83
101286.69
101286.86
101286.87
101286.87
101286.87
101284.57
101284.57
101284.57
101284.56
101284.39
101281.89
101282.05
101282.06
101282.07
101282.07
101279.32
101279.32
101279.31
101279.3
101279.15
101276.16
101276.28
101276.29
101276.3
101276.3
101272.95
101272.95
101272.94
101272.93
101272.85
101269.16
101269.18
101269.19
101269.2
101269.2
101264.98
101264.98
101264.96
101264.95
101265.03
101260.35
101260.15
101260.16
101260.17
101260.17
101254.69
101254.69
101254.67
101254.67
101255.02
101248.92
101248.39
101248.38
101248.39
101248.39
101241.14
101241.15
101241.15
101241.17
101241.9
101233.77
101232.83
101232.79
101232.78
101232.75
101223.01
101223.05
101223.08
101223.16
101224.32
101213.25
101211.84
101211.73
101211.66
101211.6
101198.14
101198.24
101198.35
101198.52
101200.2
101184.64
101182.65
101182.42
101182.25
101182.11
101162.74
101162.92
101163.16
101163.47
101165.84
101143.37
101140.58
101140.18
101139.85
101139.61
101111.6
101111.92
101112.35
101112.88
101115.81
101077.11
101074.5
101073.85
101073.27
101072.84
101027.74
101028.2
101029.01
101029.93
101033.74
101019.96
101010.74
101009.02
101007.72
101007.35
100924.89
100925.09
100924.61
100925.03
100925.12
100560.84
100415.89
100400.46
100388.89
100370.76
100530.51
100559.35
100580.54
100603.59
100784.23
101225.29
101329.44
101334.56
101337.39
101335.74
100968.27
100987.36
100996.36
101006.77
101093.29
101580.93
101569.11
101549.11
101525.82
101496.27
101854.73
102002.72
102023.13
102037.56
102041.5
102132.63
102125.75
102118.31
102099.03
101804.72
101638.38
101670.68
101663.03
101654.27
101632.12
101520.46
101528.69
101532.16
101533.03
101472.03
101299.64
101381.78
101390.12
101395.51
101400.8
101179.8
101190.37
101199.36
101204.43
101205.57
100647.13
100432.91
100404.78
100379.81
100341.82
100501.65
100511.27
100515.77
100524.28
100608.64
100933.49
100928.4
100926.78
100925.68
100924.5
101003.36
101004.15
101005.47
101007.1
101012.06
101030.81
101029.29
101028.4
101027.56
101027
101073.35
101073.81
101074.42
101075.09
101076.82
101115.45
101113.17
101112.64
101112.18
101111.83
101139.76
101140.02
101140.36
101140.77
101143.04
101165.63
101163.59
101163.28
101163.04
101162.85
101182.15
101182.29
101182.46
101182.69
101184.49
101200.07
101198.5
101198.33
101198.21
101198.11
101211.53
101211.6
101211.67
101211.79
101213.14
101224.23
101223.08
101223
101222.96
101222.92
101232.67
101232.69
101232.71
101232.76
101233.7
101241.84
101241.1
101241.08
101241.08
101241.06
101248.32
101248.32
101248.32
101248.32
101248.88
101254.99
101254.61
101254.61
101254.63
101254.63
101260.13
101260.13
101260.12
101260.11
101260.33
101265.02
101264.92
101264.93
101264.95
101264.95
101269.18
101269.18
101269.16
101269.15
101269.16
101272.85
101272.91
101272.92
101272.93
101272.93
101276.28
101276.28
101276.28
101276.27
101276.16
101279.16
101279.3
101279.3
101279.31
101279.31
101282.06
101282.06
101282.06
101282.05
101281.9
101284.39
101284.55
101284.56
101284.56
101284.56
101286.87
101286.87
101286.87
101286.87
101286.7
101288.85
101289.01
101289.01
101289.01
101289.01
101291
101291.01
101291.01
101291
101290.84
101292.7
101292.86
101292.86
101292.86
101292.86
101294.6
101294.61
101294.61
101294.6
101294.45
101296.09
101296.24
101296.24
101296.24
101296.24
101297.78
101297.78
101297.78
101297.78
101297.64
101299.12
101299.23
101299.23
101299.23
101299.22
101299.22
101299.22
101299.22
101299.22
101299.09
101297.62
101297.79
101297.79
101297.79
101297.79
101296.25
101296.25
101296.25
101296.25
101296.07
101294.43
101294.61
101294.62
101294.61
101294.61
101292.87
101292.87
101292.87
101292.87
101292.68
101290.82
101291.01
101291.02
101291.02
101291.01
101289.02
101289.02
101289.02
101289.02
101288.82
101286.67
101286.87
101286.88
101286.88
101286.88
101284.57
101284.57
101284.56
101284.56
101284.36
101281.86
101282.04
101282.05
101282.05
101282.05
101279.3
101279.3
101279.3
101279.29
101279.12
101276.12
101276.25
101276.26
101276.27
101276.27
101272.92
101272.92
101272.91
101272.9
101272.81
101269.13
101269.13
101269.14
101269.15
101269.15
101264.92
101264.92
101264.9
101264.89
101265
101260.34
101260.09
101260.09
101260.11
101260.11
101254.6
101254.6
101254.58
101254.58
101255.02
101248.94
101248.31
101248.3
101248.31
101248.31
101241.07
101241.08
101241.08
101241.1
101241.96
101233.89
101232.8
101232.76
101232.75
101232.72
101223.04
101223.08
101223.11
101223.18
101224.52
101213.56
101211.98
101211.87
101211.81
101211.76
101198.49
101198.58
101198.68
101198.83
101200.67
101185.31
101183.18
101182.97
101182.82
101182.71
101163.66
101163.82
101164.04
101164.33
101166.75
101144.53
101141.86
101141.47
101141.16
101140.93
101113.27
101113.58
101114.02
101114.55
101117.07
101078.19
101076.62
101075.97
101075.36
101074.94
101030.65
101031.19
101032.04
101032.94
101034.11
101019.32
101013.16
101011.35
101009.88
101009.14
100932.79
100933.35
100933.89
100935.54
100938.37
100629.87
100534.05
100526.04
100520.81
100511.1
100420.2
100452.47
100475.8
100502.71
100743.71
101096.31
101119.36
101118
101116.75
101107.62
100851.29
100882.25
100910.34
100937.73
101160.91
101607.05
101964.24
102005.17
102040.6
102075.7
101064.65
101087.45
101104.91
101119.7
101203.27
100967.4
100893.69
100881.14
100871.73
100848.44
100911.78
100914.83
100915.48
100916.09
100909.88
100553.95
100343.45
100318.54
100297.04
100269.25
100916.73
100917.38
100917.34
100918.18
100919.11
101022.36
101015.05
101013.14
101011.6
101011.08
101028.35
101028.95
101029.88
101030.92
101034.38
101076.91
101074.56
101073.85
101073.2
101072.71
101111.63
101112.01
101112.5
101113.08
101115.83
101143.41
101140.77
101140.32
101139.95
101139.68
101162.74
101162.95
101163.22
101163.55
101165.83
101184.63
101182.68
101182.44
101182.25
101182.1
101198.1
101198.21
101198.33
101198.5
101200.17
101213.2
101211.77
101211.65
101211.58
101211.51
101222.9
101222.95
101222.99
101223.06
101224.26
101233.72
101232.74
101232.7
101232.68
101232.66
101241.05
101241.07
101241.06
101241.09
101241.85
101248.87
101248.32
101248.31
101248.33
101248.32
101254.62
101254.62
101254.61
101254.6
101254.98
101260.32
101260.1
101260.11
101260.12
101260.13
101264.93
101264.93
101264.91
101264.9
101264.99
101269.13
101269.14
101269.15
101269.16
101269.16
101272.92
101272.91
101272.9
101272.89
101272.82
101276.13
101276.24
101276.26
101276.26
101276.27
101279.29
101279.29
101279.28
101279.27
101279.13
101281.87
101282.03
101282.03
101282.04
101282.04
101284.55
101284.55
101284.54
101284.54
101284.37
101286.67
101286.84
101286.85
101286.85
101286.85
101289
101289
101289
101288.99
101288.82
101290.82
101290.98
101290.99
101290.99
101290.99
101292.84
101292.85
101292.85
101292.84
101292.68
101294.43
101294.58
101294.59
101294.59
101294.59
101296.22
101296.22
101296.22
101296.22
101296.07
101297.62
101297.77
101297.77
101297.77
101297.77
101299.19
101299.19
101299.19
101299.19
101299.08
101299.09
101299.19
101299.19
101299.19
101299.19
101297.76
101297.76
101297.76
101297.76
101297.61
101296.07
101296.22
101296.22
101296.22
101296.22
101294.59
101294.6
101294.6
101294.59
101294.43
101292.69
101292.85
101292.86
101292.86
101292.86
101291
101291.01
101291.01
101291
101290.83
101288.84
101289.01
101289.01
101289.02
101289.02
101286.88
101286.88
101286.88
101286.87
101286.69
101284.38
101284.55
101284.56
101284.57
101284.57
101282.06
101282.06
101282.06
101282.05
101281.88
101279.15
101279.3
101279.32
101279.32
101279.32
101276.3
101276.3
101276.29
101276.28
101276.15
101272.84
101272.92
101272.94
101272.95
101272.95
101269.2
101269.19
101269.18
101269.17
101269.15
101265.01
101264.93
101264.94
101264.96
101264.96
101260.17
101260.17
101260.15
101260.14
101260.34
101255
101254.65
101254.65
101254.67
101254.67
101248.38
101248.38
101248.37
101248.38
101248.91
101241.89
101241.17
101241.15
101241.15
101241.14
101232.76
101232.79
101232.8
101232.84
101233.77
101224.32
101223.18
101223.1
101223.07
101223.02
101211.63
101211.7
101211.77
101211.88
101213.25
101200.22
101198.6
101198.43
101198.32
101198.22
101182.22
101182.36
101182.53
101182.76
101184.67
101165.88
101163.61
101163.29
101163.05
101162.86
101139.69
101139.94
101140.28
101140.7
101143.4
101115.92
101112.93
101112.38
101111.92
101111.57
101072.89
101073.34
101073.94
101074.63
101077.45
101032.67
101029.07
101028.12
101027.28
101026.77
101004.23
101004.73
101006.12
101007.96
101017.26
100935.98
100936.38
100935.97
100936.52
100936.45
100432.3
100446.46
100454.2
100465.14
100575.31
100668.51
100402.75
100368.42
100338.55
100298.74
101597.86
101585.96
101573.39
101556.43
101374.21
101014.87
100894.35
100880.89
100872.42
100852.34
101231.95
101145.12
101216.02
101133.44
100956.35
100934.91
100915.36
100887.61
101391.95
101388.66
101385.09
101379.18
101322.98
101729.02
101738.66
101743.6
101741.46
101720.05
101469.48
101537.93
101534.57
101528.48
101506.51
101085.15
101119.04
101135.24
101153.72
101244.38
101470.71
101514.62
101517.9
101517.16
101514.69
101497.07
101782.83
101450.74
101528.77
101310.49
101312.77
101305.99
101310.47
101307.41
101305.63
101306.92
101307.33
101299.1
101299.11
101299.11
101299.11
101299.02
101297.56
101297.69
101297.69
101297.68
101297.68
101296.16
101296.16
101296.16
101296.16
101296.03
101294.4
101294.55
101294.55
101294.55
101294.55
101292.82
101292.82
101292.82
101292.82
101292.67
101290.82
101290.97
101290.98
101290.98
101290.97
101288.99
101288.99
101288.99
101288.99
101288.83
101286.69
101286.85
101286.85
101286.85
101286.85
101284.55
101284.55
101284.55
101284.54
101284.38
101281.89
101282.05
101282.06
101282.06
101282.06
101279.32
101279.32
101279.32
101279.31
101279.17
101276.17
101276.28
101276.29
101276.3
101276.3
101272.96
101272.95
101272.95
101272.94
101272.87
101269.2
101269.2
101269.21
101269.22
101269.22
101265
101265
101264.99
101264.98
101265.06
101260.39
101260.18
101260.19
101260.2
101260.2
101254.7
101254.7
101254.69
101254.68
101255.05
101248.95
101248.4
101248.39
101248.4
101248.39
101241.13
101241.15
101241.15
101241.17
101241.91
101233.77
101232.83
101232.78
101232.77
101232.74
101222.98
101223.03
101223.07
101223.14
101224.29
101213.19
101211.84
101211.73
101211.65
101211.58
101198.17
101198.27
101198.39
101198.56
101200.12
101184.51
101182.73
101182.5
101182.32
101182.17
101162.86
101163.06
101163.31
101163.62
101165.66
101143.14
101140.85
101140.43
101140.09
101139.82
101111.65
101112
101112.47
101113.01
101115.3
101075.73
101073.95
101073.3
101072.69
101072.24
101028.78
101029.31
101030.15
101031.07
101033.1
101020.65
101016.45
101014.75
101013.34
101012.64
100898.89
100900.05
100901.04
100902.6
100905.16
100561.41
100385.66
100367.02
100352.07
100331.65
100898.46
100906.67
100907.6
100909.88
100913.79
100886.12
100733.4
100713.46
100696.35
100664.03
101272.93
101279.85
101291.01
101297.81
101329.6
101566.73
101569.49
101574.26
101562.52
101393.17
101415.5
101414.74
101420.08
101369.37
101385.55
101432.05
101420.53
101412.67
101385.94
102358.19
102315.83
102279.4
102232.82
101871.82
101781.56
102029.89
102051.15
102066.67
102082.73
101272.68
101279.63
101290.8
101297.61
101329.6
100886.2
100733.4
100713.47
100696.38
100664.07
100898.66
100906.86
100907.78
100910.05
100913.96
100561.56
100385.83
100367.19
100352.28
100331.85
100898.9
100900.05
100901.06
100902.63
100905.35
101020.75
101016.69
101015.01
101013.61
101012.92
101028.87
101029.4
101030.23
101031.15
101033.16
101075.78
101074.01
101073.35
101072.75
101072.3
101111.68
101112.04
101112.5
101113.04
101115.31
101143.11
101140.85
101140.43
101140.09
101139.82
101162.84
101163.03
101163.28
101163.6
101165.61
101184.45
101182.68
101182.45
101182.27
101182.12
101198.09
101198.2
101198.32
101198.49
101200.03
101213.08
101211.75
101211.63
101211.56
101211.48
101222.87
101222.91
101222.96
101223.04
101224.17
101233.65
101232.71
101232.66
101232.64
101232.61
101241.01
101241.02
101241.02
101241.05
101241.8
101248.84
101248.28
101248.27
101248.28
101248.27
101254.58
101254.58
101254.57
101254.57
101254.96
101260.3
101260.07
101260.07
101260.09
101260.09
101264.91
101264.91
101264.9
101264.89
101265
101269.13
101269.11
101269.12
101269.13
101269.13
101272.9
101272.89
101272.89
101272.88
101272.83
101276.14
101276.24
101276.24
101276.25
101276.25
101279.28
101279.28
101279.27
101279.26
101279.13
101281.86
101282.01
101282.01
101282.02
101282.02
101284.52
101284.52
101284.52
101284.52
101284.36
101286.67
101286.82
101286.83
101286.83
101286.83
101288.98
101288.98
101288.98
101288.97
101288.82
101290.81
101290.96
101290.97
101290.97
101290.96
101292.82
101292.82
101292.82
101292.82
101292.67
101294.41
101294.56
101294.56
101294.56
101294.56
101296.19
101296.19
101296.19
101296.19
101296.05
101297.59
101297.73
101297.73
101297.73
101297.72
101299.19
101299.19
101299.2
101299.2
101299.06
101300.47
101300.6
101300.6
101300.6
101300.6
101298.98
101299.09
101299.09
101299.09
101299.09
101297.67
101297.68
101297.68
101297.68
101297.54
101296
101296.15
101296.15
101296.15
101296.15
101294.53
101294.53
101294.53
101294.53
101294.37
101292.64
101292.8
101292.8
101292.8
101292.8
101290.95
101290.96
101290.95
101290.95
101290.78
101288.79
101288.96
101288.97
101288.97
101288.97
101286.84
101286.84
101286.83
101286.83
101286.65
101284.35
101284.53
101284.53
101284.54
101284.54
101282.03
101282.03
101282.03
101282.02
101281.85
101279.13
101279.28
101279.29
101279.3
101279.3
101276.29
101276.28
101276.28
101276.26
101276.13
101272.84
101272.92
101272.93
101272.95
101272.95
101269.21
101269.21
101269.2
101269.18
101269.16
101265.03
101264.96
101264.98
101264.99
101264.99
101260.21
101260.21
101260.19
101260.18
101260.37
101255.05
101254.69
101254.7
101254.72
101254.72
101248.41
101248.41
101248.4
101248.41
101248.95
101241.93
101241.19
101241.18
101241.18
101241.17
101232.75
101232.78
101232.79
101232.83
101233.81
101224.35
101223.15
101223.08
101223.05
101223
101211.59
101211.66
101211.73
101211.85
101213.29
101200.25
101198.56
101198.39
101198.27
101198.16
101182.13
101182.28
101182.47
101182.71
101184.68
101165.84
101163.53
101163.2
101162.93
101162.73
101139.63
101139.9
101140.27
101140.72
101143.4
101115.76
101112.97
101112.38
101111.89
101111.52
101072.54
101073.03
101073.68
101074.4
101076.8
101034.21
101030.69
101029.64
101028.7
101028.11
101010.79
101011.31
101012.85
101014.76
101022.12
100918.77
100917.81
100916.97
100917.01
100916.36
100268.84
100296.63
100318.16
100343.08
100553.59
100909.43
100915.56
100914.93
100914.27
100911.21
100847.94
100871.24
100880.64
100893.2
100966.86
101202.7
101119.48
101104.73
101087.33
101064.62
102074.18
102039.16
102003.82
101962.89
101605.76
101160.22
100937.18
100909.84
100881.78
100850.91
101395.06
101390.08
101384.99
101376.96
101297.6
101215.52
101263.06
101267.29
101270.84
101267.94
100882.66
100907.67
100920.34
100938.33
101080.17
101014.31
100893.31
100879.83
100871.33
100851.18
100968.57
100987.68
100996.69
101007.12
101093.82
101133.76
100956.37
100934.89
100915.31
100887.54
101392.44
101389.14
101385.57
101379.65
101323.25
100908.35
100765.88
100743.63
100721.54
100688.78
100883.73
100891.29
100893.54
100897.19
100915.78
100551.21
100372.98
100354.31
100339.62
100317.72
100902.56
100903.85
100905.11
100906.53
100906.46
101021.19
101017.29
101015.53
101014.05
101013.4
101028.63
101029.17
101030.05
101030.99
101032.77
101075.86
101074.35
101073.68
101073.07
101072.61
101112.03
101112.38
101112.85
101113.39
101115.46
101143.18
101141.05
101140.64
101140.29
101140.03
101162.98
101163.17
101163.42
101163.73
101165.65
101184.46
101182.76
101182.53
101182.35
101182.21
101198.14
101198.24
101198.36
101198.53
101200.03
101213.09
101211.78
101211.67
101211.59
101211.52
101222.89
101222.94
101222.98
101223.06
101224.17
101233.65
101232.72
101232.67
101232.66
101232.63
101241.01
101241.03
101241.03
101241.06
101241.8
101248.84
101248.28
101248.27
101248.28
101248.27
101254.58
101254.58
101254.57
101254.57
101254.95
101260.3
101260.08
101260.08
101260.1
101260.1
101264.91
101264.91
101264.9
101264.89
101264.99
101269.13
101269.11
101269.12
101269.13
101269.13
101272.89
101272.89
101272.88
101272.87
101272.82
101276.13
101276.23
101276.24
101276.24
101276.24
101279.26
101279.26
101279.26
101279.25
101279.13
101281.86
101282
101282.01
101282.02
101282.01
101284.52
101284.52
101284.52
101284.51
101284.36
101286.67
101286.83
101286.83
101286.83
101286.83
101288.97
101288.97
101288.97
101288.96
101288.81
101290.8
101290.96
101290.96
101290.96
101290.96
101292.81
101292.81
101292.81
101292.81
101292.66
101294.41
101294.55
101294.55
101294.55
101294.55
101296.19
101296.19
101296.19
101296.19
101296.05
101297.59
101297.73
101297.73
101297.73
101297.73
101299.19
101299.19
101299.19
101299.19
101299.05
101300.42
101300.52
101300.52
101300.51
101300.51
101299.06
101299.16
101299.16
101299.16
101299.16
101297.72
101297.73
101297.73
101297.73
101297.59
101296.05
101296.19
101296.19
101296.19
101296.19
101294.57
101294.57
101294.57
101294.57
101294.42
101292.68
101292.83
101292.84
101292.84
101292.83
101290.99
101290.99
101290.99
101290.98
101290.83
101288.84
101289
101289
101289
101289
101286.87
101286.87
101286.87
101286.86
101286.7
101284.39
101284.55
101284.56
101284.56
101284.56
101282.06
101282.06
101282.06
101282.05
101281.89
101279.17
101279.31
101279.31
101279.32
101279.32
101276.31
101276.31
101276.3
101276.29
101276.18
101272.87
101272.94
101272.95
101272.96
101272.96
101269.21
101269.21
101269.19
101269.19
101269.19
101265.06
101264.97
101264.97
101264.99
101264.99
101260.19
101260.19
101260.18
101260.17
101260.38
101255.04
101254.67
101254.67
101254.69
101254.69
101248.39
101248.4
101248.39
101248.4
101248.94
101241.91
101241.17
101241.15
101241.15
101241.13
101232.74
101232.77
101232.78
101232.83
101233.76
101224.28
101223.15
101223.07
101223.03
101222.99
101211.59
101211.66
101211.73
101211.85
101213.17
101200.11
101198.58
101198.42
101198.3
101198.2
101182.25
101182.39
101182.56
101182.79
101184.52
101165.69
101163.74
101163.43
101163.18
101162.99
101140.03
101140.29
101140.63
101141.04
101143.2
101115.46
101113.36
101112.82
101112.35
101112
101072.54
101073
101073.62
101074.28
101075.83
101032.71
101030.89
101029.95
101029.07
101028.53
101013.14
101013.78
101015.26
101017.04
101021.09
100906.26
100906.55
100905.12
100903.87
100902.59
100317.53
100339.45
100354.16
100372.82
100551.01
100915.64
100897.08
100893.43
100891.18
100883.62
100688.84
100721.58
100743.65
100765.88
100908.26
101030.97
100955.21
100945.71
100936.22
100919.58
100675.78
100695.76
100707.85
100722.43
100839.07
100606.67
100463.09
100450.02
100440.6
100425.97
100917.36
100917.98
100918.89
100920.48
100927.72
101022.63
101016.69
101015.09
101013.77
101013.23
101030.44
101030.87
101031.64
101032.47
101034.13
101077.26
101075.53
101074.93
101074.39
101074
101113.01
101113.3
101113.7
101114.19
101116.77
101144.42
101141.74
101141.38
101141.09
101140.88
101163.66
101163.82
101164.02
101164.29
101166.7
101185.3
101183.2
101183
101182.86
101182.75
101198.56
101198.64
101198.73
101198.87
101200.68
101213.58
101212.04
101211.94
101211.89
101211.83
101223.13
101223.17
101223.2
101223.26
101224.55
101233.94
101232.89
101232.85
101232.84
101232.82
101241.17
101241.18
101241.18
101241.19
101242.01
101248.99
101248.39
101248.38
101248.4
101248.39
101254.67
101254.67
101254.66
101254.65
101255.06
101260.37
101260.14
101260.15
101260.17
101260.17
101264.96
101264.96
101264.94
101264.93
101265.03
101269.15
101269.17
101269.18
101269.19
101269.19
101272.95
101272.95
101272.94
101272.93
101272.84
101276.14
101276.28
101276.29
101276.3
101276.3
101279.32
101279.32
101279.32
101279.31
101279.14
101281.87
101282.06
101282.07
101282.07
101282.07
101284.58
101284.58
101284.57
101284.57
101284.37
101286.68
101286.88
101286.88
101286.88
101286.88
101289.02
101289.02
101289.02
101289.02
101288.82
101290.82
101291.01
101291.01
101291.01
101291.01
101292.86
101292.86
101292.87
101292.86
101292.67
101294.41
101294.6
101294.6
101294.6
101294.6
101296.21
101296.22
101296.22
101296.22
101296.05
101297.59
101297.75
101297.75
101297.75
101297.75
101299.17
101299.17
101299.17
101299.17
101299.07
101299.02
101299.13
101299.13
101299.13
101299.13
101297.71
101297.71
101297.72
101297.71
101297.56
101296.01
101296.18
101296.19
101296.18
101296.18
101294.57
101294.57
101294.57
101294.57
101294.39
101292.65
101292.83
101292.84
101292.84
101292.84
101290.99
101290.99
101290.99
101290.98
101290.79
101288.8
101289
101289
101289
101289
101286.86
101286.86
101286.86
101286.86
101286.66
101284.35
101284.55
101284.56
101284.56
101284.56
101282.06
101282.06
101282.05
101282.04
101281.86
101279.13
101279.3
101279.31
101279.32
101279.32
101276.3
101276.3
101276.29
101276.28
101276.13
101272.83
101272.93
101272.94
101272.95
101272.95
101269.2
101269.2
101269.19
101269.18
101269.16
101265.04
101264.95
101264.96
101264.97
101264.98
101260.18
101260.18
101260.17
101260.16
101260.39
101255.08
101254.67
101254.67
101254.69
101254.68
101248.4
101248.4
101248.39
101248.4
101249.02
101242.04
101241.19
101241.17
101241.18
101241.16
101232.81
101232.83
101232.84
101232.88
101233.97
101224.58
101223.24
101223.18
101223.15
101223.11
101211.8
101211.85
101211.91
101212.01
101213.6
101200.69
101198.83
101198.68
101198.58
101198.5
101182.68
101182.8
101182.94
101183.15
101185.3
101166.7
101164.24
101163.95
101163.74
101163.59
101140.8
101141.02
101141.31
101141.69
101144.45
101116.77
101114.07
101113.57
101113.15
101112.85
101073.88
101074.27
101074.82
101075.44
101077.49
101035.14
101032.78
101031.92
101031.16
101030.64
101010.86
101011.58
101012.93
101014.58
101022.29
100927.14
100920.06
100918.86
100918.21
100917.77
100492.95
100501.4
100505.33
100513.25
100615.13
100794.23
100571.13
100543.85
100517.76
100483.72
101019.36
101024.66
101025.05
101025.22
101036.58
101126.64
100936.21
100915.34
100898.97
100871.91
101480.19
101507.19
101529.01
101547.6
101554.17
101188.29
101148
101138.21
101127.9