/*--------------------------------*- C++ -*----------------------------------*\
  =========                 |
  \\      /  F ield         | OpenFOAM: The Open Source CFD Toolbox
   \\    /   O peration     | Website:  https://openfoam.org
    \\  /    A nd           | Version:  7
     \\/     M anipulation  |
\*---------------------------------------------------------------------------*/
FoamFile
{
    version     2.0;
    format      ascii;
    class       surfaceScalarField;
    location    "210";
    object      phi;
}
// * * * * * * * * * * * * * * * * * * * * * * * * * * * * * * * * * * * * * //

dimensions      [1 0 -1 0 0 0 0];

internalField   nonuniform List<scalar> 
74673
(
2.1300724e-07
-0.0022677144
-1.8553879e-07
3.4299695e-07
-0.0027198734
-2.136555e-07
4.4054534e-07
-0.0030932273
-2.3412283e-07
5.1600547e-07
-0.0034742407
-2.5367465e-07
-0.056536495
-3.9628496e-06
7.4119825e-08
-5.8369034e-07
-0.056534651
-3.5272863e-06
2.1579137e-06
1.1034657e-07
-4.9607234e-07
-0.0034743378
-2.2243143e-07
2.324375e-07
-3.786863e-07
-0.0030933513
-2.0566385e-07
2.1282214e-07
-2.227273e-07
-0.0027200324
-1.8747219e-07
1.9173797e-07
-0.0022679389
-1.6124984e-07
1.6304867e-07
2.2317906e-07
-0.0022681676
-1.1092076e-07
1.1762433e-07
3.6427854e-07
-0.0027201839
-1.2922254e-07
1.4019189e-07
4.6650802e-07
-0.003093468
-1.4177687e-07
1.5667241e-07
5.3575087e-07
-0.003474425
-1.5361547e-07
1.716039e-07
-0.056532915
-2.530916e-06
1.6212815e-06
-2.9065523e-07
-5.0961721e-07
-0.056531177
-1.4853229e-06
9.9672385e-07
-7.4000852e-07
-4.4731862e-07
-0.0034745025
-8.8489313e-08
1.0403152e-07
-3.5562682e-07
-0.0030935717
-8.2472329e-08
9.4804236e-08
-2.2052271e-07
-0.0027203268
-7.5930011e-08
8.4508285e-08
-0.0022683927
-6.5600938e-08
7.0214774e-08
2.1827285e-07
-0.0022686145
-2.7082616e-08
3.1469675e-08
3.426143e-07
-0.0027204588
-3.0986002e-08
3.9096439e-08
4.2297364e-07
-0.0030936637
-3.2676425e-08
4.4603248e-08
4.7034407e-07
-0.003474565
-3.4263301e-08
4.9414329e-08
-0.056529403
-6.3464412e-07
4.9130556e-07
-1.1599177e-06
-4.2651382e-07
-0.056527561
-7.7980503e-08
1.5949154e-07
-1.4967312e-06
-3.9620628e-07
-0.003474611
1.2164918e-09
1.4739072e-08
-3.2917613e-07
-0.0030937433
-1.1971616e-10
1.2927391e-08
-2.1409968e-07
-0.0027205826
-1.2654697e-09
1.0651443e-08
-0.0022688345
-1.2331462e-09
7.093334e-09
2.1075938e-07
-0.0022690527
1.4120292e-08
-6.0359239e-09
3.138587e-07
-0.0027206966
1.5992348e-08
-4.7786003e-09
3.6372693e-07
-0.0030938073
1.8579917e-08
-4.1830517e-09
3.7899884e-07
-0.0034746432
2.1260957e-08
-4.2588319e-09
-0.056525604
2.2035253e-07
-3.3600877e-08
-1.7651289e-06
-3.2563657e-07
-0.056523548
3.6011906e-07
-1.2231639e-07
-1.9681785e-06
-3.2865858e-07
-0.0034746592
3.2067887e-08
-1.2932927e-08
-2.971968e-07
-0.0030938554
2.8845962e-08
-1.2105246e-08
-2.1033025e-07
-0.0027207969
2.5725062e-08
-1.1983341e-08
-0.0022692736
2.2876079e-08
-1.2304383e-08
2.0924736e-07
-0.0022695094
3.0264033e-08
-3.3571456e-09
2.7755378e-07
-0.0027208966
3.3538602e-08
-2.1206607e-09
2.9101918e-07
-0.0030939038
3.706859e-08
-2.0609326e-09
2.6311992e-07
-0.0034746688
4.044978e-08
-2.9600313e-09
-0.056521568
4.5092001e-07
-9.364321e-08
-2.0738023e-06
-1.949158e-07
-0.056519532
5.347482e-07
-2.1492173e-07
-2.1610722e-06
-2.4431931e-07
-0.0034746438
4.7783976e-08
-2.3335509e-08
-2.5798377e-07
-0.0030939127
4.4098288e-08
-2.1508722e-08
-2.070055e-07
-0.0027209673
4.0429494e-08
-2.0537913e-08
-0.0022697333
3.7177329e-08
-2.030051e-08
2.0420855e-07
-0.0022699588
4.4390355e-08
-2.3267571e-08
2.3582162e-07
-0.0027210232
4.7934798e-08
-2.3789412e-08
1.9661739e-07
-0.0030939004
5.1648864e-08
-2.4776927e-08
1.189031e-07
-0.0034745947
5.5231233e-08
-2.6703254e-08
-0.056517579
6.1070065e-07
-2.3870959e-07
-2.2058806e-06
-4.0463984e-08
-0.056515794
6.810082e-07
-2.5437381e-07
-2.1718353e-06
-1.4164738e-07
-0.0034745256
6.2298404e-08
-3.0233952e-08
-2.0912363e-07
-0.0030938637
5.9022854e-08
-2.8395672e-08
-2.0322113e-07
-0.0027210577
5.5762267e-08
-2.7379679e-08
-0.0022701873
5.2074854e-08
-2.6813848e-08
2.0127422e-07
-0.0022704182
6.0057503e-08
-3.1007774e-08
1.8187335e-07
-0.0027210705
6.3483352e-08
-3.1535874e-08
8.6691812e-08
-0.0030938027
6.6364572e-08
-3.2399764e-08
-4.4353797e-08
-0.0034744297
6.9134774e-08
-3.4110879e-08
-0.056514347
7.3405005e-07
-2.6811547e-07
-1.9569309e-06
1.2896485e-07
-0.056513574
8.3637272e-07
-2.8423967e-07
-1.455368e-06
-2.401587e-08
-0.0034743144
7.6149159e-08
-3.882306e-08
-1.5263577e-07
-0.0030937115
7.4092405e-08
-3.7108559e-08
-1.9862296e-07
-0.0027210608
7.1905385e-08
-3.6554674e-08
-0.0022706492
6.9186144e-08
-3.6793136e-08
2.015761e-07
-0.0022708886
7.9968712e-08
-4.347793e-08
1.3179725e-07
-0.0027210301
8.1489323e-08
-4.3084225e-08
-2.2184815e-08
-0.0030935976
8.2978398e-08
-4.3312839e-08
-1.9483356e-07
-0.0034741818
8.4658137e-08
-4.4740937e-08
-0.056513863
9.8350146e-07
-2.9098709e-07
-5.9796362e-07
1.9430519e-07
-0.056515589
1.1791786e-06
-3.0654089e-07
6.5779739e-07
2.3688415e-08
-0.0034740517
9.3089256e-08
-5.3117628e-08
-1.450177e-07
-0.0030934693
9.1763457e-08
-5.1880117e-08
-2.229848e-07
-0.002720993
9.1564354e-08
-5.1872697e-08
-0.0022711504
9.1272185e-08
-5.2495302e-08
2.8273718e-07
-0.0022714777
1.0666598e-07
-6.3419201e-08
2.2631819e-07
-0.0027209816
1.0820572e-07
-6.3833128e-08
8.0028026e-08
-0.0030933678
1.0812241e-07
-6.3860286e-08
-5.902653e-08
-0.0034739573
1.0903787e-07
-6.4398927e-08
-0.056519341
1.4854298e-06
-3.2657298e-07
2.5340224e-06
-3.5003368e-07
-0.056525919
1.9994786e-06
-4.1397174e-07
5.3419516e-06
-3.8515086e-07
-0.0034739622
1.3004892e-07
-9.0133875e-08
-4.4991687e-07
-0.0030933413
1.2784752e-07
-8.9619739e-08
-4.1390585e-07
-0.0027210552
1.2605275e-07
-8.86715e-08
-0.002271926
1.208624e-07
-8.6514365e-08
6.4914538e-07
-0.0022726217
1.2940852e-07
-8.3336312e-08
8.8140688e-07
-0.0027213445
1.3975141e-07
-8.2917409e-08
1.0078496e-06
-0.0030935312
1.4509317e-07
-8.1880078e-08
1.1828202e-06
-0.0034742062
1.4983198e-07
-8.0932242e-08
-0.05653638
2.6364346e-06
-2.9862003e-07
9.3064604e-06
-2.6232834e-06
-0.056551575
3.4670309e-06
-2.4594797e-07
1.4596122e-05
-2.0889161e-06
-0.0034748154
1.6899509e-07
-9.4457655e-08
-1.6128957e-06
-0.0030940697
1.5953559e-07
-9.7328038e-08
-1.028028e-06
-0.0027219781
1.4899099e-07
-1.0095359e-07
-0.0022736789
1.3174496e-07
-1.0260405e-07
1.5953561e-06
-0.0022752755
1.2791284e-07
-1.2772199e-07
2.7306451e-06
-0.0027231455
1.5558254e-07
-1.2403065e-07
3.7526611e-06
-0.0030951477
1.7417598e-07
-1.1859927e-07
4.8510546e-06
-0.0034759919
1.9065079e-07
-1.1273396e-07
-0.056572683
4.5480922e-06
-1.6677594e-07
2.1577137e-05
-8.0327328e-06
-0.056601107
5.943852e-06
-6.1590658e-08
3.0574285e-05
-6.1323635e-06
-0.0034779737
2.092111e-07
-1.2831226e-07
-4.320262e-06
-0.0030970052
1.8147404e-07
-1.3666605e-07
-2.3898622e-06
-0.0027250823
1.4706004e-07
-1.4181827e-07
-0.0022776201
9.6562557e-08
-1.4178715e-07
3.4528479e-06
-0.0022809706
3.94693e-08
-1.4339349e-07
6.4675048e-06
-0.0027280668
1.1883205e-07
-1.4979254e-07
9.3701338e-06
-0.0030999368
1.7494516e-07
-1.4648607e-07
1.2364488e-05
-0.0034810512
2.1883722e-07
-1.3574087e-07
-0.056638518
7.775607e-06
6.1836874e-08
4.1937544e-05
-1.8053095e-05
-0.056686943
1.0213354e-05
1.6877812e-07
5.6095652e-05
-1.3620269e-05
-0.0034855693
2.185965e-07
-1.3393585e-07
-9.2762876e-06
-0.0031042872
1.5135603e-07
-1.4564872e-07
-4.8239436e-06
-0.0027324422
6.7319306e-08
-1.4580612e-07
-0.0022856211
-4.5074005e-08
-1.2845151e-07
6.5641468e-06
-0.0022919369
-1.3127154e-07
-1.1892452e-07
1.2846188e-05
-0.002738592
5.996142e-09
-1.392756e-07
1.9044274e-05
-0.0031104659
1.20838e-07
-1.4087562e-07
2.5327104e-05
-0.0034919427
2.1891668e-07
-1.2851442e-07
-0.056749042
1.3476304e-05
2.112592e-07
7.3738214e-05
-3.4308999e-05
-0.05682869
1.7899698e-05
5.3285592e-08
9.6003363e-05
-2.5746632e-05
-0.0035006283
2.5764352e-07
-1.3540885e-07
-1.7255244e-05
-0.0031189346
1.226739e-07
-1.4652428e-07
-8.715191e-06
-0.002746967
-2.5201036e-08
-1.4239369e-07
-0.0023003407
-1.8780602e-07
-1.2362721e-07
1.1328028e-05
-0.002311367
-1.7836556e-07
-1.2698061e-07
2.264863e-05
-0.0027581435
2.1873619e-08
-1.6791029e-07
3.3962545e-05
-0.0031302763
2.0948102e-07
-1.8296315e-07
4.5345174e-05
-0.0035122209
3.8818195e-07
-1.7843695e-07
-0.056931337
2.3838291e-05
-5.5669657e-07
0.00012470953
-5.9405701e-05
-0.057064512
3.1772856e-05
-1.9501589e-06
0.00016275761
-4.4417622e-05
-0.0035275731
6.5047659e-07
-2.8729573e-07
-2.9501149e-05
-0.0031453358
4.1771322e-07
-2.7570843e-07
-1.4632769e-05
-0.0027729573
1.8491654e-07
-2.4194927e-07
-0.0023257784
-4.6207443e-08
-1.7521192e-07
1.8939443e-05
-0.0023446268
1.5927644e-07
-2.5281134e-07
3.807213e-05
-0.0027921384
3.8583148e-07
-3.3899029e-07
5.7334629e-05
-0.0031648566
6.5385005e-07
-3.9656962e-07
7.6704778e-05
-0.0035474548
9.4450429e-07
-4.330677e-07
-0.057240132
4.1189438e-05
-4.0539532e-06
0.00021518884
-9.9331868e-05
-0.057482049
5.1464263e-05
-6.7767835e-06
0.00029656044
-7.3956282e-05
-0.0035734742
1.1903773e-06
-5.4792835e-07
-4.8954722e-05
-0.0031902328
8.5120893e-07
-4.7820237e-07
-2.4337746e-05
-0.0028169485
5.9123384e-07
-4.0167783e-07
-0.0023690553
4.4124103e-07
-3.5050121e-07
3.2808957e-05
-0.0024019117
9.1030153e-07
-8.7099336e-07
7.0267633e-05
-0.0028545559
7.9648759e-07
-6.5174669e-07
0.0001088445
-0.0032291164
9.9544104e-07
-6.9111268e-07
0.0001480321
-0.0036133524
1.5142471e-06
-8.238674e-07
-0.057814134
7.4418024e-05
-1.2603088e-05
0.00041830224
-0.00022799237
-0.058129936
9.8020209e-05
-1.495517e-05
0.00046072874
-0.00016740831
-0.0036737796
7.7276183e-07
-9.316368e-07
-0.00010572629
-0.0032898455
-1.4489138e-07
-8.1043148e-07
-4.7313702e-05
-0.0029113928
-5.6264752e-07
-1.0183734e-06
-0.0024461625
-1.1158033e-06
-1.9471975e-06
9.6394947e-05
-0.0025293645
-1.3810398e-05
6.0663649e-07
0.00017762993
-0.0029837728
-8.0128493e-06
-8.4656203e-07
0.00025289409
-0.0033599341
-4.4558828e-06
-7.2215143e-07
0.00033012121
-0.0037469385
-4.005109e-06
-6.3004905e-08
-0.058249314
6.7048789e-05
9.0139945e-06
0.00037343741
0.00010398678
-0.059642272
3.9360845e-05
-2.9752367e-05
0.0012793661
7.2870436e-05
-0.0037202454
1.1292433e-05
-6.8644206e-06
4.7153977e-05
-0.0033377291
1.0214075e-05
-6.6972192e-06
2.3777954e-05
-0.0029654279
1.2349745e-05
-7.3066035e-06
-0.0025173892
2.2097152e-05
-1.0294393e-05
-2.5471443e-05
-0.0024005826
-0.00010071801
9.403132e-06
-5.4440708e-05
-0.0028268419
-0.00011326835
3.6603696e-06
-9.0099709e-05
-0.003183061
-0.00012119014
2.1875177e-06
-0.00013265463
-0.0035502244
-0.00012986533
2.400103e-06
-0.059706691
-0.0018839059
3.0265677e-05
0.0017854069
0.00056229723
-0.056449568
-0.003106856
6.8000186e-05
-0.00078056132
0.00039065251
-0.0031914594
-0.00019998701
1.286737e-05
0.00024127032
-0.0028588248
-0.00018698574
1.2132463e-05
0.00011045262
-0.0025376694
-0.00017109833
1.2745072e-05
-0.0021611001
-0.00014444218
1.5412358e-05
-2.0551805e-05
0.0020318072
-0.0021310583
-0.0020412969
-4.9550383e-05
0.0024133073
-0.0025167381
-0.0024052399
-8.0358729e-05
0.0027542346
-0.002853966
-0.002728285
-0.0001115901
0.0031192706
-0.0032079839
-0.0030715146
0.071634604
-0.027743956
-0.034760472
-0.065691334
0.0002868763
0.087058064
-0.014446919
-0.0043702726
0.00018851214
0.0038323662
-0.00081471774
9.9236855e-05
0.0033792572
-0.00072273234
2.8520051e-05
0.0029532147
-0.00064028735
0.0024694127
-0.00055352755
-9.8258792e-05
0.0024739311
-6.9571891e-06
-0.00019646288
0.0029622167
-2.4058269e-05
-0.00029734843
0.0033946632
-3.5703903e-05
-0.00040778595
0.0038586914
-4.5752466e-05
0.085417153
-0.0015948639
0.00094408567
-0.00025039854
0.085001385
-0.00055063067
0.0012561585
-0.00020051277
0.0038636933
-4.3593953e-05
-0.00015254364
0.0033969434
-4.0033836e-05
-9.3792138e-05
0.0029573922
-4.1574229e-05
0.0024522384
-5.000235e-05
6.0853479e-05
0.0023836187
-6.044347e-06
0.00013272743
0.0028887407
-1.1235005e-05
0.00021185257
0.0033264555
-1.3092619e-05
0.00029541381
0.0037892227
-1.3095444e-05
0.084775921
-0.00012442948
0.0007123576
-0.00021834516
0.084328052
-2.760112e-05
0.00079183585
-0.00015522792
0.0037284123
-1.5338197e-06
-9.5275969e-05
0.0032676258
-1.2669942e-06
-4.1072526e-05
0.0028346369
-6.6184361e-07
0.0023406396
7.9074107e-07
3.116738e-05
0.0023103446
3.7030351e-08
6.708993e-05
0.0027995921
-8.1050697e-08
0.00010552274
0.0032303434
-1.5485346e-07
0.00014647861
0.0036891353
-1.6462144e-07
0.083893596
1.4938843e-07
0.00065520376
-0.00010078494
0.083574488
1.1913856e-05
0.00045944278
-7.3518784e-05
0.0036623931
6.6637892e-07
-4.7776373e-05
0.0032048602
5.9186941e-07
-2.3342644e-05
0.0027752209
5.2847844e-07
0.0022869779
4.6529184e-07
1.7715004e-05
0.0022686964
7.2549329e-07
3.6500172e-05
0.0027560158
8.0601436e-07
5.6344584e-05
0.0031848083
8.6141801e-07
7.7299047e-05
0.003641473
9.102208e-07
0.083338255
1.0877625e-05
0.00034384417
-5.9091336e-05
0.08315581
6.8970286e-06
0.00026641194
-4.2930051e-05
0.0036251167
8.4536914e-07
-2.7698152e-05
0.0031691616
8.3242566e-07
-1.3331983e-05
0.0027410356
7.9870128e-07
0.0022545793
7.3892846e-07
1.0095276e-05
0.0022436511
6.5387362e-07
2.0852521e-05
0.0027296159
6.8441156e-07
3.2261064e-05
0.003157271
6.9138735e-07
4.4423455e-05
0.0036126587
6.8375771e-07
0.08301335
4.0328187e-06
0.0002066886
-3.32422e-05
0.082901626
2.4671797e-06
0.00016039862
-2.4159144e-05
0.0036032769
5.5624846e-07
-1.5680948e-05
0.0031483423
5.7291343e-07
-7.6611391e-06
0.0027209888
5.8157123e-07
0.0022352284
5.7379428e-07
5.7857685e-06
0.0022288115
4.9940256e-07
1.1694887e-05
0.0027145913
4.9435778e-07
1.7906265e-05
0.0031417722
4.7942831e-07
2.4594552e-05
0.0035963462
4.6123678e-07
0.082813678
1.7002003e-06
0.00012431793
-1.779917e-05
0.082744562
1.3662047e-06
9.576259e-05
-1.3007386e-05
0.0035913908
3.8202192e-07
-8.5818001e-06
0.0031370986
3.9916393e-07
-4.3224305e-06
0.0027099822
4.1665089e-07
0.002224016
4.2797876e-07
3.1832993e-06
0.0022205159
3.5597169e-07
6.1400929e-06
0.0027068039
3.4026366e-07
9.1605005e-06
0.0031339302
3.2277207e-07
1.2454491e-05
0.0035880057
3.0991024e-07
0.082690802
1.2291646e-06
7.2760115e-05
-8.2870711e-06
0.082649708
1.2076896e-06
5.4116877e-05
-6.1597962e-06
0.0035858404
2.4705087e-07
-4.2306993e-06
0.0031319279
2.5444926e-07
-2.283738e-06
0.0027047358
2.6781613e-07
0.0022180461
2.8265289e-07
1.5934147e-06
0.0022163629
2.1740382e-07
2.7773187e-06
0.0027035027
2.0468817e-07
3.8924581e-06
0.0031307917
1.9501456e-07
5.1427473e-06
0.0035845878
1.9287629e-07
0.082619015
1.2374971e-06
3.9146196e-05
-2.9090281e-06
0.0825968
1.2356152e-06
2.7355316e-05
-2.2740328e-06
0.0035839793
1.4225692e-07
-1.7256525e-06
0.0031302625
1.402388e-07
-1.0758491e-06
0.0027028556
1.4585695e-07
0.0022152598
1.5894259e-07
7.3053284e-07
0.0022145504
1.0819955e-07
1.0316627e-06
0.0027025934
1.0067772e-07
1.21925e-06
0.0031301204
9.9428672e-08
1.4510047e-06
0.003583793
1.0431699e-07
0.082581415
1.1962112e-06
1.8275906e-05
-5.8091049e-07
0.082571514
1.1000148e-06
1.13806e-05
-5.8588007e-07
0.0035838504
7.7485958e-08
-6.0895073e-07
0.0031301999
7.1251225e-08
-5.0456173e-07
0.0027025463
6.8521309e-08
0.0022140976
6.9094881e-08
3.6746613e-07
0.0022137882
4.6741719e-08
3.6386044e-07
0.0027026065
5.0820936e-08
2.4523753e-07
0.0031303702
5.5824751e-08
1.1994573e-07
0.0035840225
6.2104447e-08
0.082565818
9.6939074e-07
6.3313622e-06
2.5238392e-08
0.082563141
8.7813342e-07
2.9531947e-06
-1.3291838e-07
0.0035842173
5.6360077e-08
-2.7173797e-07
0.0031305501
5.0560169e-08
-3.021043e-07
0.0027026841
4.4055684e-08
0.0022135417
3.5676132e-08
2.6628104e-07
0.0022133142
4.0796163e-08
2.4608e-07
0.0027027357
4.9973788e-08
1.2270426e-07
0.0031306994
5.6839987e-08
-2.8054066e-08
0.0035843901
6.2475942e-08
0.082562597
8.7910378e-07
6.1979689e-07
-2.2755457e-08
0.082563615
8.6010003e-07
-1.0196199e-06
-1.5309519e-07
0.0035845288
6.7663571e-08
-2.4990821e-07
0.0031308076
6.252667e-08
-2.5565573e-07
0.002702757
5.596234e-08
0.0022130818
4.597842e-08
2.4652808e-07
0.0022128452
4.9848981e-08
2.6915521e-07
0.0027027388
5.894679e-08
2.0754914e-07
0.0031308709
6.4529409e-08
1.0570717e-07
0.0035846308
6.8891214e-08
0.082565651
8.0382177e-07
-1.9997703e-06
-1.8882756e-07
0.08256821
7.630473e-07
-2.452804e-06
-2.5673633e-07
0.0035846915
6.9492353e-08
-2.8927738e-07
0.0031308967
6.5701404e-08
-2.4537225e-07
0.0027026898
6.0809409e-08
0.0022125988
5.3105807e-08
2.4176117e-07
0.0022123478
5.354928e-08
3.0825328e-07
0.002702612
5.914781e-08
3.0556695e-07
0.0031308882
6.2815668e-08
2.6487911e-07
0.0035847213
6.6059117e-08
0.082571035
6.9215605e-07
-2.6411044e-06
-3.3284742e-07
0.082574001
5.8932992e-07
-2.6882061e-06
-3.4480465e-07
0.0035847209
6.0110554e-08
-3.2109285e-07
0.0031308508
5.7753807e-08
-2.363798e-07
0.0027025126
5.5062181e-08
0.0022120979
5.0708957e-08
2.3813263e-07
0.0022118425
4.7451276e-08
3.3934535e-07
0.0027023945
5.0433896e-08
3.885585e-07
0.0031307865
5.2107258e-08
4.0069585e-07
0.0035846954
5.3795509e-08
0.082577032
4.9068382e-07
-2.6693731e-06
-4.5410366e-07
0.082580027
4.0356418e-07
-2.5852929e-06
-4.1608049e-07
0.0035846418
4.7557026e-08
-3.4926308e-07
0.0031307019
4.6563443e-08
-2.3140148e-07
0.0027022566
4.5646415e-08
0.0022115903
4.3707159e-08
2.3109672e-07
0.0022113346
3.8802671e-08
3.585439e-07
0.002702106
3.9106739e-08
4.4228479e-07
0.0031305979
3.9026875e-08
4.9876996e-07
0.0035845674
3.9246901e-08
0.082582884
2.8538339e-07
-2.4224034e-06
-5.3677409e-07
0.082585597
3.072603e-08
-2.2848093e-06
-4.667033e-07
0.0035844777
2.0852604e-08
-3.6690999e-07
0.0031304758
2.217217e-08
-2.2915181e-07
0.0027019429
2.4148148e-08
0.0022110777
2.6532439e-08
2.3043569e-07
0.0022108181
2.1818858e-09
3.7638215e-07
0.0027017707
-4.7231126e-09
4.8938663e-07
0.0031303403
-1.0100865e-08
5.7561278e-07
0.0035843718
-1.456206e-08
0.082588179
-4.6189084e-07
-2.1794535e-06
-6.2038968e-07
0.08259065
-1.2097814e-06
-2.1254717e-06
-5.1595991e-07
0.0035842481
-6.9239109e-08
-3.9008575e-07
0.003130192
-6.0110523e-08
-2.3255938e-07
0.0027015869
-4.9599539e-08
0.0022105556
-3.5682913e-08
2.3326696e-07
0.0022102937
-8.2110212e-08
4.0145581e-07
0.002701394
-1.0446962e-07
5.3680627e-07
0.0031300362
-1.2115299e-07
6.5259191e-07
0.0035841149
-1.3617888e-07
0.082593013
-2.1198747e-06
-2.121359e-06
-7.4588677e-07
0.082595301
-2.899267e-06
-2.1700942e-06
-5.9900677e-07
0.0035839427
-1.9696879e-07
-4.3255693e-07
0.0031298415
-1.7733756e-07
-2.4353581e-07
0.0027011731
-1.5530577e-07
0.0022100142
-1.2529535e-07
2.1002156e-07
-1.3509346e-07
3.5251476e-07
-1.6560667e-07
4.7330083e-07
-1.8862279e-07
5.845166e-07
-2.0963916e-07
-3.0543501e-06
-2.4949901e-06
-5.1922942e-07
-0.082591383
-7.4924699e-06
1.0188588e-05
-4.2350248e-07
-0.0035839826
-5.3372391e-07
6.2294802e-07
-3.1774597e-07
-0.0031299146
-4.8629186e-07
5.7120481e-07
-1.8832116e-07
-0.002701288
-4.3496141e-07
5.169143e-07
-0.002210207
-3.6565137e-07
4.4360056e-07
2.126583e-07
-0.0022104821
-2.4567884e-07
3.095628e-07
3.6667328e-07
-0.0027015064
-2.9460594e-07
3.5972261e-07
4.9737734e-07
-0.0031301101
-3.3088151e-07
3.9618466e-07
6.0514699e-07
-0.0035841573
-3.639877e-07
4.3093439e-07
-0.082589386
-5.1996414e-06
7.0781404e-06
-3.2700223e-06
-5.5540157e-07
-0.08258705
-3.1445634e-06
4.3511618e-06
-2.987184e-06
-4.6631018e-07
-0.003584295
-2.1436032e-07
2.6336166e-07
-3.5492261e-07
-0.0031302701
-1.941008e-07
2.431101e-07
-2.1360712e-07
-0.0027016971
-1.7154652e-07
2.2176576e-07
-0.0022107463
-1.411917e-07
1.9176219e-07
2.1539982e-07
-0.002211002
-6.4307691e-08
1.053368e-07
3.5123419e-07
-0.0027018721
-8.1224863e-08
1.2078358e-07
4.5042005e-07
-0.0031304063
-9.3799606e-08
1.3113e-07
5.2471208e-07
-0.0035844054
-1.0465664e-07
1.4082536e-07
-0.082584445
-1.6276736e-06
2.3649145e-06
-2.8176448e-06
-4.8417908e-07
-0.082581641
-6.6552107e-07
1.1258887e-06
-2.7794349e-06
-4.2739484e-07
-0.0035844912
-3.5819107e-08
6.499048e-08
-3.4188278e-07
-0.0031305224
-3.0913347e-08
6.1607157e-08
-2.15776e-07
-0.0027020311
-2.4797013e-08
5.7895106e-08
-0.0022112525
-1.6483342e-08
5.120425e-08
2.2026189e-07
-0.0022115029
1.0154166e-08
2.0110795e-08
3.3598688e-07
-0.0027021758
6.7520542e-09
2.2305908e-08
4.0704463e-07
-0.00313062
4.1845534e-09
2.2464098e-08
4.4902135e-07
-0.0035845582
2.6996575e-09
2.2284198e-08
-0.082578661
-1.1487488e-07
4.3511882e-07
-2.851335e-06
-4.1083794e-07
-0.082575551
1.8851489e-07
7.5657317e-08
-2.9637338e-06
-3.8722297e-07
-0.0035846051
2.3786708e-08
-4.3065404e-10
-3.3126225e-07
-0.0031307008
2.3288956e-08
1.5084899e-09
-2.2651335e-07
-0.0027023074
2.3720661e-08
3.080332e-09
-0.0022117571
2.4555396e-08
3.0868392e-09
2.295101e-07
-0.0022120115
3.1919837e-08
-7.1632461e-09
3.2114595e-07
-0.0027024241
3.251064e-08
-7.5592146e-09
3.5590237e-07
-0.0031307593
3.3163313e-08
-9.5367599e-09
3.5480584e-07
-0.0035846267
3.4729965e-08
-1.2107739e-08
-0.082572393
3.5734305e-07
-1.0757022e-07
-3.0526372e-06
-2.9651196e-07
-0.082569222
4.4791971e-07
-2.1398601e-07
-3.1084587e-06
-3.2152007e-07
-0.0035846219
3.9167782e-08
-1.9094226e-08
-3.0874312e-07
-0.0031307928
3.7010049e-08
-1.6421019e-08
-2.3272918e-07
-0.0027025219
3.5694268e-08
-1.4310904e-08
-0.002212265
3.4492998e-08
-1.3758838e-08
2.3546739e-07
-0.0022125161
3.7706133e-08
-2.2693909e-08
2.9300243e-07
-0.0027025962
3.9473422e-08
-2.3030639e-08
2.7736612e-07
-0.0031307937
4.1336143e-08
-2.502981e-08
2.2434791e-07
-0.0035845854
4.4321515e-08
-2.7904348e-08
-0.082566128
5.4484438e-07
-3.324632e-07
-3.0819419e-06
-1.4375242e-07
-0.08256335
6.8410892e-07
-4.9292516e-07
-2.8257272e-06
-2.2893141e-07
-0.0035845134
5.3810654e-08
-4.1029782e-08
-2.7222238e-07
-0.0031307629
5.0136088e-08
-3.8078974e-08
-2.3867746e-07
-0.0027026414
4.7210265e-08
-3.6398702e-08
-0.0022127619
4.3442464e-08
-3.6279915e-08
2.4363535e-07
-0.0022130041
4.693762e-08
-4.9601231e-08
2.5597038e-07
-0.0027026573
5.298864e-08
-5.0019109e-08
1.8273683e-07
-0.0031306961
5.7436896e-08
-5.1455947e-08
7.0041943e-08
-0.0035844087
6.2158065e-08
-5.4227499e-08
-0.082561168
8.1018677e-07
-6.4602825e-07
-2.2769113e-06
1.5573548e-08
-0.082559888
9.1295679e-07
-8.0394694e-07
-1.4053291e-06
-1.3059933e-07
-0.0035842619
6.6360464e-08
-6.7613613e-08
-2.3908659e-07
-0.0031305838
6.0828214e-08
-6.526963e-08
-2.5111333e-07
-0.0027026377
5.5126724e-08
-6.4072168e-08
-0.0022132386
4.6850578e-08
-6.3560345e-08
2.6616158e-07
-0.0022134728
4.6124919e-08
-7.9568165e-08
2.3495133e-07
-0.0027025825
5.6094002e-08
-8.0821607e-08
9.8159969e-08
-0.0031304288
6.3495735e-08
-8.2414615e-08
-6.820975e-08
-0.0035840808
7.0142115e-08
-8.4912621e-08
-0.082560035
1.0368343e-06
-1.0883089e-06
1.3025644e-07
6.5940917e-08
-0.082562365
1.1649232e-06
-1.3813946e-06
2.4799849e-06
-1.0730293e-07
-0.0035838804
7.4031546e-08
-1.0195753e-07
-2.5967693e-07
-0.0031302446
6.6839354e-08
-9.9417131e-08
-3.000178e-07
-0.0027025053
5.9111566e-08
-9.7673477e-08
-0.0022137274
4.9350976e-08
-9.4814605e-08
3.6270361e-07
-0.0022140481
6.413114e-08
-1.0778769e-07
3.5110704e-07
-0.0027024484
6.7902282e-08
-1.1400336e-07
2.2016751e-07
-0.0031300714
7.3820722e-08
-1.1675837e-07
8.0427688e-08
-0.0035837032
8.1946168e-08
-1.1954118e-07
-0.082567679
1.2682238e-06
-1.7327431e-06
5.8584349e-06
-5.190646e-07
-0.082577014
1.3248433e-06
-2.2032523e-06
1.0731717e-05
-5.4463856e-07
-0.0035836384
9.4131394e-08
-1.3356544e-07
-5.8048648e-07
-0.0031299937
8.7064357e-08
-1.2908399e-07
-4.9348836e-07
-0.0027024977
8.5022235e-08
-1.2304781e-07
-0.0022145189
8.7986575e-08
-1.1072588e-07
7.0200689e-07
-0.0022152556
1.3726518e-07
-1.0267162e-07
9.7970915e-07
-0.0027027787
1.2471759e-07
-1.2155232e-07
1.1399742e-06
-0.0031301431
1.2153197e-07
-1.3258498e-07
1.3453903e-06
-0.0035838301
1.267103e-07
-1.4047643e-07
-0.082591615
1.4331974e-06
-2.8188667e-06
1.7331575e-05
-2.6862228e-06
-0.082612991
1.6048925e-06
-3.6472871e-06
2.6104686e-05
-2.1045914e-06
-0.0035844575
1.8577456e-07
-1.4013257e-07
-1.6092996e-06
-0.0031306962
1.8360358e-07
-1.2580458e-07
-1.0138462e-06
-0.0027034601
1.9386917e-07
-1.0804644e-07
-0.0022164048
2.1890332e-07
-8.3547496e-08
1.4515843e-06
-0.0022181384
3.1871614e-07
-3.7868019e-08
2.520181e-06
-0.0027047404
2.8798808e-07
-7.6850356e-08
3.5319102e-06
-0.0031318741
2.7115173e-07
-1.0546662e-07
4.6794914e-06
-0.0035857441
2.6824025e-07
-1.2927366e-07
-0.082642741
1.7845789e-06
-4.7370189e-06
3.7381509e-05
-7.4802937e-06
-0.082682616
1.9058768e-06
-6.1234787e-06
5.157174e-05
-5.5402157e-06
-0.0035879434
3.6427802e-07
-1.0581406e-07
-3.8021382e-06
-0.0031339176
3.7347612e-07
-6.8775608e-08
-2.0602106e-06
-0.0027068522
3.952246e-07
-2.6744258e-08
-0.002220651
4.2571719e-07
2.6732112e-08
2.8630334e-06
-0.0022241625
5.4052342e-07
1.0601395e-07
5.5094632e-06
-0.0027100509
5.1282544e-07
3.8464514e-08
8.2260391e-06
-0.0031371029
4.8679987e-07
-1.8815558e-08
1.1221963e-05
-0.0035913368
4.7037695e-07
-7.3013429e-08
-0.082734791
2.0088951e-06
-7.8764964e-06
6.9264269e-05
-1.6115067e-05
-0.082801912
2.1714704e-06
-1.0191009e-05
9.1254869e-05
-1.1745892e-05
-0.0035962464
5.8376113e-07
-4.4159265e-08
-7.7459055e-06
-0.0031417432
6.0737259e-07
3.2057144e-08
-3.9157086e-06
-0.0027146259
6.3605784e-07
1.0694019e-07
-0.002228921
6.5948346e-07
1.8331433e-07
5.2688706e-06
-0.0022352258
7.8516406e-07
2.481001e-07
1.0631457e-05
-0.0027209118
7.6371883e-07
1.5825053e-07
1.6295482e-05
-0.0031482022
7.3264852e-07
6.1198057e-08
2.2436177e-05
-0.0036030471
7.0349567e-07
-4.3641482e-08
-0.08288742
2.4818256e-06
-1.3352743e-05
0.00011881409
-3.057298e-05
-0.082996138
3.04053e-06
-1.7538384e-05
0.00015378755
-2.2160631e-05
-0.0036121994
8.3955776e-07
-1.0059507e-07
-1.4362613e-05
-0.0031569109
8.7184645e-07
3.77929e-08
-7.0187626e-06
-0.0027293265
9.0481679e-07
1.6375506e-07
-0.0022434506
9.2423886e-07
2.8169572e-07
9.3206621e-06
-0.0022540997
1.0739575e-06
2.5093786e-07
1.9261175e-05
-0.0027404307
1.0604208e-06
1.0145654e-07
2.9843446e-05
-0.0031684668
1.0270628e-06
-5.487889e-08
4.1189696e-05
-0.0036243122
9.928689e-07
-2.2649914e-07
-0.083135101
3.8864417e-06
-2.2630259e-05
0.00019889559
-5.5376846e-05
-0.083313818
5.2853768e-06
-2.8367793e-05
0.00025717511
-4.0140009e-05
-0.0036402814
1.1278273e-06
-3.9640466e-07
-2.5845371e-05
-0.00318373
1.1583708e-06
-1.9076832e-07
-1.2419423e-05
-0.0027550408
1.18542e-06
-3.4771183e-09
-0.0022678836
1.2006099e-06
1.6386503e-07
1.6644325e-05
-0.0022858379
1.2996412e-06
7.9964774e-09
3.4497464e-05
-0.002773999
1.2335183e-06
-1.2976101e-07
5.3461186e-05
-0.0032035639
1.1956965e-06
-3.2660395e-07
7.3558819e-05
-0.0036609963
1.1806589e-06
-5.6349368e-07
-0.083545703
7.1587061e-06
-3.4401482e-05
0.00033268631
-9.6546296e-05
-0.08385954
7.8180366e-06
-3.9349481e-05
0.00044191349
-7.0201143e-05
-0.0036877246
9.6380532e-07
-5.8205787e-07
-4.5409416e-05
-0.0032289898
9.7650529e-07
-3.4396281e-07
-2.2096712e-05
-0.0027981924
1.0769695e-06
-1.996382e-07
-0.0023090232
1.3087782e-06
-2.2011004e-07
2.9385627e-05
-0.0023389391
9.682819e-07
-4.4400516e-07
6.3166989e-05
-0.0028323443
3.0811884e-07
5.9635243e-08
9.9798114e-05
-0.0032657121
2.9468919e-08
5.9602173e-08
0.00013901706
-0.0037266903
-4.9967064e-08
-2.0330602e-07
-0.084303923
-3.7894415e-07
-4.4878427e-05
0.00062865753
-0.00022922553
-0.084783193
-2.3190291e-05
-5.7411327e-05
0.00078909619
-0.00016362994
-0.0037900235
-2.3534181e-06
9.0037743e-08
-0.00010116795
-0.003326483
-2.2198215e-06
5.2765619e-07
-4.4086938e-05
-0.0028884497
-1.6147699e-06
6.3663288e-07
-0.0023826812
1.4364696e-07
-4.8850228e-07
6.5575567e-05
-0.0024469192
-2.5606263e-06
1.2217827e-06
0.00014425362
-0.0029607717
-7.09161e-06
7.3532666e-07
0.00022973097
-0.0034026581
-8.21913e-06
-1.0831502e-06
0.00031762063
-0.003868178
-8.5708547e-06
-1.1640309e-06
-0.084972683
-7.0919197e-05
-7.3483418e-05
0.00065151448
-0.0002362941
-0.085459991
-0.00035603003
0.0001247714
0.00095486331
-0.00019006139
-0.003887426
-6.3872609e-06
-2.0590967e-05
-0.00014811816
-0.0034189638
-3.2536869e-06
-2.2376851e-05
-9.5225832e-05
-0.0029879393
-1.1351901e-06
-2.4574214e-05
-0.0025089675
-2.9815006e-06
-3.0195861e-05
-0.00016526056
-0.0024069899
-4.2188528e-05
0.00010550978
-0.00032270376
-0.0028929545
-5.3595201e-05
0.00011607028
-0.00048618265
-0.0033179354
-6.3255214e-05
0.0001257178
-0.00066952275
-0.0037657649
-7.3410709e-05
0.00013509044
-0.088084806
-0.0017359473
0.002033138
0.0016581039
-1.7732564e-05
-0.071779336
-0.014728525
0.002923018
-0.0044822277
-3.7437656e-05
-0.0031128263
-0.00080462923
0.00017139656
-5.071497e-05
-0.0027483944
-0.00071353992
0.00015727716
-4.5493968e-05
-0.0024083871
-0.000631135
0.00014134861
-0.002025644
-0.00054145947
0.00011461961
1.6059198e-05
0.0021209242
2.9938762e-05
0.0024990268
4.4516916e-05
0.002820945
5.6688724e-05
0.0031561675
0.056203729
0.00059297694
0.070400067
-0.0001405473
-0.0084423496
0.00041822516
0.0037738513
-2.1761982e-05
0.00026081673
0.0033451475
-2.1660172e-05
0.00012055304
0.002937468
-2.2890638e-05
0.002468601
-2.7072142e-05
-0.00021817518
0.0025694897
7.5100347e-05
-0.00043405304
0.0030325057
6.724674e-05
-0.00065537588
0.0034390809
6.4136088e-05
-0.0008917297
0.0038733607
6.3434042e-05
0.067610908
0.0003403875
-0.00017890454
-4.5536285e-05
0.0668439
8.405026e-05
0.00037246383
-4.6501268e-05
0.003848374
1.9564564e-05
-4.8084064e-05
0.0034167959
2.0614327e-05
-3.923141e-05
0.0030022483
2.027002e-05
0.0025099765
1.7300291e-05
5.8555036e-05
0.0024377281
1.1132399e-05
0.00011786814
0.0029241282
1.1715224e-05
0.00017922146
0.0033359728
1.1250864e-05
0.00024289355
0.0037655816
1.0549618e-05
0.066694137
1.1154062e-05
0.00031058338
-0.00019075911
0.066306498
1.5106405e-05
0.00054010159
-0.00013748362
0.0037020241
7.9284522e-06
-8.5905036e-05
0.003273821
8.3532428e-06
-3.7851104e-05
0.0028657538
8.7053102e-06
0.0023912678
8.7528488e-06
2.6865118e-05
0.0023594851
5.8855353e-06
5.6625252e-05
0.0028305423
5.7591857e-06
8.8130356e-05
0.0032368523
5.4926432e-06
0.00012132971
0.0036635924
5.1823454e-06
0.065950879
8.1189974e-06
0.00046845114
-8.7813099e-05
0.065706739
4.1296559e-06
0.00033564062
-6.4819366e-05
0.0036382373
3.3249814e-06
-4.2767316e-05
0.0032122347
3.5418981e-06
-2.1409663e-05
0.0028065171
3.744093e-06
0.0023355147
3.8694425e-06
1.6745713e-05
0.0023174524