/*--------------------------------*- C++ -*----------------------------------*\
  =========                 |
  \\      /  F ield         | OpenFOAM: The Open Source CFD Toolbox
   \\    /   O peration     | Website:  https://openfoam.org
    \\  /    A nd           | Version:  7
     \\/     M anipulation  |
\*---------------------------------------------------------------------------*/
FoamFile
{
    version     2.0;
    format      ascii;
    class       volScalarField;
    location    "210";
    object      alphat;
}
// * * * * * * * * * * * * * * * * * * * * * * * * * * * * * * * * * * * * * //

dimensions      [1 -1 -1 0 0 0 0];

internalField   nonuniform List<scalar> 
25278
(
7.9406577
7.8824772
7.8751062
7.8750639
7.80975
7.8825544
7.9493901
7.940666
7.9493441
7.9472604
7.9529772
7.9355727
7.9077034
7.8765258
7.3656798
7.8750809
7.8825599
7.5463897
7.0875196
7.650867
7.8281361
7.8803551
7.8937588
7.9260785
7.9015149
7.9260017
7.8937846
7.8577982
7.8305107
7.8721601
7.8145727
7.759006
7.4826239
7.6804198
7.7304005
7.7063119
7.7478132
7.6826618
7.6384963
7.4161906
7.5527978
7.6010654
7.4850839
7.534812
7.7233469
7.854955
7.917265
7.8731718
7.7845891
7.7310904
7.6596011
7.5728209
6.9865744
7.2181491
7.5527013
7.6080386
7.521145
7.4626828
7.104372
7.2661003
7.3428591
7.1973867
7.0698567
7.4557543
7.3877831
7.3426145
7.4119632
6.9946521
6.8872052
6.9695544
6.4088542
6.6438956
6.8994778
7.1385938
7.3500803
7.4859232
7.731565
7.8728228
7.880576
7.827818
7.7663126
7.3709742
7.5506025
7.1087907
7.7402479
7.658861
6.819718
5.8847572
6.4761806
7.0613667
7.1266561
6.5216237
6.4641993
5.3777183
5.5001198
6.5339273
6.6943725
7.2423299
7.2957851
6.7498124
6.6820382
5.6485892
5.814348
6.7623273
6.1474269
6.1011356
5.9363464
4.3568487
4.2626637
3.3838677
5.3670699
5.3682061
3.3707295
3.3737667
4.4765273
4.6143698
3.3816783
5.532664
5.5353683
5.5292003
7.1057178
7.739913
7.8096989
6.4472884
5.3573974
4.2477459
3.3760294
5.3622212
6.8162429
7.6584359
7.7658286
7.8276035
7.5479541
7.3672687
6.465952
5.875397
5.9259665
5.3626699
3.3609819
4.3401972
4.4577051
3.3618253
3.3668983
5.5251189
6.1356927
6.0906195
6.6843856
6.5233415
5.4790026
6.5043654
7.3586907
7.0532552
7.1189658
7.2356462
7.5416082
7.2897083
6.7522317
5.7922269
4.5928483
2.8378073
1.4050917
1.4134339
2.8555877
4.5581351
6.105083
6.0630514
5.4676776
5.4569038
3.2544849
3.2639814
4.427219
2.7959078
1.4635898
1.3422371
0.51211893
0.57925038
1.5309758
1.5239594
0.59507209
0.52787907
1.3511577
1.4683275
2.7812289
4.3895637
5.6268607
6.6661174
6.734388
6.0729572
4.5171864
3.1853812
3.2038203
5.4104041
7.0682881
6.0320801
5.3939156
5.6158678
3.1839978
1.2364373
0.46986261
0.45419407
1.2231561
3.2643744
5.6799504
6.3061462
6.9371511
7.4062391
7.6819394
7.8315119
7.7622435
7.8167466
7.7098101
7.4899383
7.5576984
7.6050497
7.7504809
7.6876204
7.6446197
7.4257391
7.4929036
7.5409548
7.6514259
7.7862966
7.9016081
7.9173314
7.9148547
7.7980087
7.8060794
7.8679345
7.8562717
7.7803239
7.7904795
7.6691844
7.5737449
7.7379814
7.7272243
7.6611013
7.7872784
7.8738993
7.8295032
7.6575676
7.7354767
7.5619825
7.2363567
7.2820475
7.3563795
7.6155102
7.5315874
7.475338
7.1278217
7.2173981
7.0949011
7.4681083
7.6653244
7.5815188
7.0138658
7.4028728
6.9987497
6.9169599
7.3577752
7.4242907
7.0200872
7.1026631
7.1721118
7.2855617
7.4148866
7.4571472
7.67624
7.6033523
7.586553
7.5279504
7.7290847
7.7447315
7.8017021
7.7006382
7.7603696
7.7616111
7.8114476
7.6977291
7.6936715
7.5951309
7.6076033
7.5002698
7.7034815
7.6369315
7.6346746
7.3710591
7.4837645
7.3679016
7.438728
7.5038881
7.5374459
7.5980645
7.7975516
7.9145548
7.9011221
7.7854966
7.7782025
7.7888685
7.7350725
7.5692368
7.6669076
7.6483418
7.4759707
7.5660587
7.5080454
7.4695325
7.4438036
7.4113153
7.2299396
7.4182917
7.1272855
7.0559322
6.7402237
6.8664338
6.4076717
6.8280074
7.1319362
7.4230873
7.3558401
6.948582
7.0612123
6.7574737
7.152115
7.2416008
6.8814706
6.4216097
6.2854064
6.7273149
6.0233167
6.2697809
5.6738691
5.8501491
6.280565
6.5097054
6.7450709
6.9363721
7.1245273
7.2790375
7.3133618
7.2154991
7.3655304
7.330856
7.1687285
6.9874592
7.0343068
7.1664817
7.213786
7.2459278
7.1977041
7.3450318
7.3596764
7.4824523
7.4115668
7.398125
7.247584
7.2698055
7.0970125
7.2189108
7.0399598
7.0196769
6.9795529
6.8255204
6.7652779
6.5326021
6.5902316
6.7952129
6.9205103
7.2175481
7.4796262
7.5107058
7.248672
7.2050609
7.351593
7.4749705
7.4501023
7.4186891
7.2878311
7.3209543
7.2271894
7.3749826
7.3416301
7.1821224
7.0032404
7.1343008
7.1749853
6.988784
6.9466977
6.7833901
6.8415686
7.0482838
7.0823687
7.2576368
7.4062166
7.4183631
7.4870214
7.3652012
7.2783804
7.107374
7.2250805
7.046722
7.0275446
6.8800551
6.9086656
6.9323389
7.075178
7.2961273
7.2991464
7.5467969
7.5193796
7.5079953
7.3902547
7.3861301
7.2958978
7.3073316
7.4425227
7.4576165
7.4582826
7.5214424
7.4066946
7.404667
7.3188411
7.326369
7.1651908
7.2733005
7.2665083
7.2550271
7.2459641
7.127245
7.1420269
6.949886
7.0822054
7.1006153
7.1052174
6.9782763
6.9657833
7.1548285
7.0383205
7.2271614
7.3897677
7.3745861
7.2140197
7.1994354
7.1797103
7.3468866
7.3312209
7.297721
7.2582401
7.0283772
6.9246916
6.3489498
6.4150556
6.5445054
6.1684969
6.8005481
6.6835528
6.0117332
5.1982207
5.7849431
4.7975509
5.0193828
5.1780426
5.9219919
5.3399254
4.3647006
4.1939313
3.2955466
4.5758468
5.6344726
6.4611953
5.7568211
6.320442
6.4488264
6.5868537
5.7870586
5.5127453
5.352818
4.0865915
3.4126665
2.4367138
2.4291336
3.3654227
4.6849206
4.149141
4.7728687
5.0058547
5.2885046
5.5710029
5.8511488
6.1018049
6.3408433
6.5513808
6.7544672
6.8036867
6.565023
6.5160914
6.2738679
6.3448672
6.6071129
6.6508203
6.8455571
6.9773195
6.8383024
6.8634944
6.6704992
6.8965826
6.8659788
7.0701468
6.9332861
7.1406818
7.3200929
7.4491781
7.671808
7.6551369
7.5783482
7.5972488
7.3249505
7.2692995
7.4039803
7.2435248
7.0057245
6.7640317
6.1053301
6.5096178
6.3780936
5.9457599
5.5422704
5.6956282
6.5381641
6.3983793
6.2662603
5.2539202
5.4144
3.9827682
4.5362162
5.2464037
5.8774858
5.7399319
4.7337027
5.107443
4.0962026
4.9837824
5.1398723
4.2597603
3.1836062
3.1359457
4.438129
3.9345513
2.2588267
2.2280676
2.8818501
3.7649722
4.6173845
5.3003652
5.8942058
6.3436861
6.7199178
7.0821777
7.4789319
7.7256223
7.7429876
7.8002805
7.8671684
7.8047832
7.8104975
7.7600649
7.7581204
7.5919403
7.6919978
7.6964997
7.6053534
7.4965908
7.7012404
7.6973847
7.6302904
7.6340566
7.3875378
7.3626559
7.4781598
7.3600329
7.4330412
7.4999758
7.5354504
7.5454949
7.5166902
7.5047949
7.4378932
7.3014909
7.3864535
7.3815285
7.2887077
7.1186435
7.2408142
7.2941838
7.2978991
7.2631307
7.4016769
7.4042464
7.5192499
7.4552006
7.4537057
7.3141351
7.3226433
7.1607502
7.2706303
7.1023682
7.0969783
7.0776432
7.250828
7.134924
6.9415495
6.9221151
7.069489
6.8927834
7.0243961
7.0430593
6.9260501
6.9061462
6.7231325
6.6998266
6.4517362
6.6745592
6.6359305
6.6127151
6.5590319
6.32915
6.2565904
5.9766253
6.0452783
6.3406589
6.0559233
5.9882881
5.6480463
5.7338863
5.7916658
6.0997914
6.379215
6.6357975
6.4209672
6.6932069
6.647049
6.8918195
7.1041803
7.2848266
7.1862694
7.1424405
6.9245556
7.0550195
6.8418353
6.678739
6.7374695
6.9839225
7.0251797
7.2278336
7.2467887
7.3375084
7.1671985
7.0561374
6.9398391
7.1644939
7.1410972
7.0965005
7.0467902
6.943567
6.9951078
6.7294902
6.8573371
6.7968305
6.6589481
6.3326372
6.5107766
6.5715907
6.400932
6.0096455
6.2366703
6.4509378
6.3740487
6.5854638
6.3093638
6.3689643
6.1241916
6.052381
5.6735163
5.9916235
6.062582
5.7636865
5.8261624
6.1827431
6.5032173
6.7841971
6.8216314
6.9650066
6.7298723
6.5468329
6.3477584
6.6688501
6.6249232
6.9038474
6.7811113
7.0459412
7.0714797
6.8222335
6.5106756
6.459954
6.0757135
6.2963055
5.9174433
5.8507735
5.7798338
6.1605435
5.9184094
5.6909348
6.163531
6.5364498
6.8557286
7.1517258
7.5181976
7.5415122
7.5039036
7.1532111
7.2169927
7.2633206
7.5773741
7.5842348
7.5512494
7.5434487
7.2049617
7.2419338
7.2954714
7.0859315
7.1517409
7.2308181
7.3050913
7.384507
7.3681847
7.2838965
7.2747976
7.0822565
7.1889957
7.2054702
7.1025776
7.1211183
7.2202621
7.2314912
7.3884019
7.3093251
7.1354624
7.0376919
7.2384101
7.1611367
6.9415268
6.9180779
7.0191158
6.9960959
7.2078714
7.1947939
7.1079684
7.1231891
6.8895655
6.8589482
6.9709047
6.7066883
6.8527543
6.9905688
7.0116146
6.8792282
6.6170247
6.7857415
6.7601261
6.584066
6.3936918
6.4356706
6.7399114
6.5971835
6.5560074
6.1910155
6.1353751
5.9176869
6.3549237
6.7104012
6.9961813
6.9665288
6.9125492
6.8319747
6.7739291
6.4223948
6.5013878
6.6075337
6.664105
6.5618852
6.8907943
6.9223754
6.6124337
6.5398762
6.875886
6.84184
6.7810382
6.7515339
6.6900933
6.3010825
6.3829303
6.4227121
6.4861073
6.4476739
6.8140568
6.8487509
6.5028635
6.0503415
6.1060009
6.2140353
6.1513725
6.2975872
6.2325774
6.08247
6.0088742
5.4653115
5.5641847
5.7786189
5.8504486
5.6392387
5.712032
5.5473624
5.4714134
6.0395529
5.9675656
5.9090247
5.834538
5.2081839
5.3061903
5.3947457
4.6812689
4.933156
5.2376526
5.553004
5.4729634
4.9409857
5.3409426
5.4239189
5.0415413
5.1152674
5.6254545
5.692894
5.9759257
6.2322124
6.4625995
6.1648994
6.4178274
6.143248
6.4268161
6.6405697
6.8697476
6.6835346
6.4303058
6.3932923
6.6179452
6.3938024
6.1095804
6.1520085
5.8402243
5.882802
6.1810664
6.4625627
6.6784543
6.8980263
6.9104433
6.6896166
6.4877741
6.732201
6.7108321
6.4623421
6.188745
6.2198515
6.4838893
6.6863728
6.4788648
6.5043783
6.7442498
6.9591629
7.1491656
7.0294299
7.0445084
6.9219113
6.9021516
6.6461128
6.8079609
6.8269931
6.9731325
6.7613145
6.9349899
6.7220871
6.7152891
6.5110632
6.7178219
6.9294355
6.937615
6.7240544
6.5302702
6.7668714
6.7514328
6.5113913
6.2481854
6.2722123
6.5258789
6.268155
6.5248116
6.3027308
6.5793501
6.555626
6.5285878
6.4979116
6.2760958
6.3158514
5.9779632
6.2413209
6.2053569
5.9311459
5.8811017
5.5577437
5.4936088
5.0377405
5.4410898
5.7897466
6.1184132
5.7290793
5.6627339
5.2946638
5.3747347
4.9684741
5.3731489
5.2951499
4.8712756
4.4195308
4.8940653
4.9654834
4.4937714
4.4154949
3.8556621
3.9478255
4.4990824
4.5694515
5.0360582
5.4365288
5.4916325
5.8406977
5.5001789
5.0982305
4.637192
5.1049549
4.6375988
5.1876037
5.2615237
5.7588438
6.0302205
6.0817393
5.8241739
6.2438315
6.2937306
6.634752
6.7694627
6.7955086
6.6684623
6.3400232
6.508763
6.671742
6.3846542
6.3520255
6.0216505
6.2738581
5.9656562
6.2429498
6.2132969
5.9209487
5.9556127
5.9866239
5.6733135
6.0001713
5.70742
6.0618996
5.7961195
6.1755717
6.1303294
6.4740108
5.8884788
5.950293
5.4958231
5.4169481
5.7394347
5.6801518
5.6195388
5.1719229
5.5556268
5.8861008
5.9275563
5.6087113
5.2159441
5.5888557
5.5418814
5.1576708
4.7061023
4.7775115
5.2396932
4.7978578
5.3381937
4.9453632
5.5455725
6.0471904
6.4572825
6.7889127
7.0548348
7.0354595
6.9667754
6.9884564
6.7011014
6.6596467
6.7525973
6.4077696
6.273603
6.330699
5.8598838
5.785245
5.9828469
5.4658756
5.3892806
5.3146932
5.0093585
5.0871518
4.332543
4.7710931
4.6952184
4.6219677
4.5400453
5.1639683
4.8591801
4.1075011
4.1965631
4.2610636
3.8794153
4.7549203
4.8317757
4.6919424
5.4604601
5.3831994
5.9821182
5.9913426
6.452932
6.8167796
7.1557712
7.5047256
7.7261353
7.8733881
7.8285712
7.5496092
7.0936484
6.697768
7.2465971
6.6927134
6.0818601
5.482199
5.4748051
6.1267767
4.5964408
3.2921723
3.2943322
4.4603517
5.6621501
5.8269874
6.7600837
7.2989425
7.5520489
6.7640536
6.1433289
4.6176301
2.8872934
1.3708396
1.4890573
2.823656
1.549012
0.60364666
0.53681838
1.4316562
3.3774629
3.3742284
4.4835282
6.1002953
7.1077743
5.5319099
6.0248461
4.3745316
2.7740214
1.5352419
0.60116275
0.53392122
1.4159612
2.8291545
1.3262946
1.4467447
3.1806421
3.1565861
4.4998661
6.0651801
7.0661059
5.4011987
5.3832114
5.6052729
3.1484616
1.2084132
0.47567346
0.47955911
1.2544972
3.3117493
5.6998246
6.9921394
7.5742276
7.6604848
7.7328393
7.6532945
7.2262042
7.4675843
7.3919533
7.3441444
7.4132156
7.4594051
7.0783466
6.9982044
6.8909868
6.9789087
7.1146901
7.2065328
7.5252533
7.611689
7.5570631
7.2745176
7.3501814
7.4100644
7.6580455
7.7856726
7.800902
7.7432384
7.5441102
7.551618
7.5852488
7.5790018
7.5437808
7.5211314
7.4799483
7.0852488
7.1590651
7.2228765
7.2675514
7.2068472
7.2431293
7.2981851
7.3901819
7.6351431
7.6320177
7.5997043
7.5815975
7.2770846
7.3309495
7.4537272
7.6739196
7.6989556
7.7022329
7.4985677
7.4813633
7.3668483
7.1176852
7.045705
6.9760524
6.9291358
6.8990952
6.8968956
6.9221729
6.9464972
6.9219482
6.6025081
6.6358693
6.590579
6.5553277
6.116807
6.1701975
6.2329406
6.1822141
5.6260881
5.7072357
5.6255856
5.5410259
4.7780579
4.9175133
5.1709428
5.262152
4.5146594
4.4159747
4.8539077
4.1666163
4.7145876
4.1536006
4.0799247
4.0125393
4.565413
4.0202264
3.9566488
3.9056003
3.3554559
3.3903237
2.6046805
3.3051895
3.2588639
2.5698422
1.9797639
1.9478248
2.8748976
3.8285573
3.6187126
4.545234
4.4849072
3.5567002
2.5926701
2.5637082
1.5264863
1.5739089
0.87220878
1.2990666
1.9642893
2.7129007
3.3699808
3.9717731
4.4635195
4.9196521
5.3134419
5.6918018
6.0239948
6.0933233
6.3981806
6.6726173
6.9130342
7.1210996
7.0739646
6.95072
7.162174
7.2037506
7.0072385
7.045637
7.1553148
6.9519063
6.9811237
6.7497289
6.7158837
6.5379701
6.8112664
6.7677599
6.7120143
6.865259
6.6133618
6.4159923
6.489239
6.2911393
6.6130383
6.8880786
7.1185273
7.0715829
6.8307591
6.7015329
6.9738286
7.0223554
6.7680498
6.8156454
6.9311335
7.1604124
7.2430224
7.2596903
7.0737029
6.8451919
6.577534
6.3927145
6.7017732
6.9634486
7.1809575
7.3370706
7.2323007
7.5487605
7.5110116
7.4886667
7.4880843
7.7287198
7.8738422
7.8825512
7.8750669
7.9406
7.9494055
7.8767561
7.8939357
7.8805335
7.8293637
7.5808378
7.664814
7.3569792
7.0112335
6.9152076
7.0183716
7.4235947
7.4660559
7.4006589
6.9941982
7.0907144
7.2122599
7.529073
7.7344436
7.6562132
7.2317515
7.4725538
7.1222399
7.2768302
7.5591961
7.6130581
7.3516761
7.4106174
7.2809217
7.1682115
7.1011384
7.1670659
7.1684658
7.2152998
7.2738293
7.5824499
7.5875108
7.3020035
7.3928914
7.2397953
7.312147
7.2926762
7.2855712
7.0969978
7.1146694
7.1307455
7.1429452
7.2368549
7.3925816
7.3147901
7.2453338
7.0476445
7.0320875
7.0124056
7.2190408
7.2086448
6.9908306
6.8846553
7.1253168
7.0920981
7.0699303
6.9941578
6.9437509
6.8903112
6.5862428
6.65328
6.5519566
6.865981
6.8114801
6.4773417
6.086516
6.2326067
6.3900344
6.555508
6.2184744
5.9958631
6.0827504
6.4546756
6.5091446
6.6623028
6.3463425
6.1440015
6.1977328
6.5544503
6.8524009
6.7468496
7.0201203
6.9485703
6.9209896
6.6078247
6.705444
6.3583238
6.2981685
5.8706006
5.7861235
5.5753899
5.6710435
6.1566767
6.2206573
6.277117
6.4096413
5.9987713
5.9377877
5.7419953
5.8088185
5.6503819
6.1716386
6.5815782
6.6532181
6.6946814
6.7837785
7.0555652
7.0711177
7.1372132
6.9106488
6.934865
7.1628226
7.1695285
6.9543208
6.6881165
6.809898
6.9320823
7.0513537
6.8356035
6.8191253
6.7997636
7.0226688
7.0040552
6.7770602
6.6106063
6.8727148
6.8957344
6.6390821
6.6638553
6.9153114
6.7882217
6.7633849
6.7348731
6.4329527
6.4688486
6.2912176
6.6288877
6.5939099
6.246266
5.8374092
6.0832239
6.3097885
6.5181219
6.4859609
6.4472984
6.1466886
6.1903547
5.9263113
6.2705904
6.2253475
6.1704098
5.8160053
5.7286142
5.3500296
5.4282784
5.7569247
5.3915418
5.0148012
4.9182552
4.502458
4.982769
5.4239673
5.5057183
5.9194778
5.648783
5.1601937
5.0605534
4.5478996
4.6287865
5.0546577
4.5844487
4.082998
3.9860034
3.4363185
4.0827822
4.6957899
4.7818249
5.362359
5.0820953
4.3928215
4.2965309
3.5733752
3.6251271
4.1440212
3.4968058
2.8450281
2.7886237
2.2098128
3.1164597
3.9677174
4.041694
4.8405283
5.5070618
6.0443555
6.4744467
6.8155433
6.7580191
6.3997937
6.3534512
6.7257155
6.7834402
6.4309671
6.4910438
6.5331583
6.8723952
6.9024567
6.872874
6.8421183
6.8409167
6.7821043
6.7243154
6.4451418
6.3168786
5.7485089
5.3459704
5.5049264
5.7700122
6.5781548
6.4526257
5.61825
4.5504733
4.0743937
3.3941683
2.4193813
2.407174
4.1340375
4.6553622
3.3255847
3.2626956
4.1611424
5.1725176
5.9945346
6.6738037
6.3366723
6.9159117
7.0198277
6.7907379
6.1508881
6.5301581
6.400233
5.7633312
4.772862
4.9900437
5.1477369
4.3277985
5.311725
5.8999377
6.0807469
5.8266495
5.543238
5.2593029
4.9786026
4.7524252
4.6215128
4.6290312
5.3150088
5.4153561
5.9742861
5.9093427
5.9802736
5.4101318
5.4831479
5.5800883
6.1113716
6.0483781
6.1103594
6.5411235
6.5879158
6.6265036
6.9445165
6.9888139
7.0062475
6.7300638
6.8146027
6.8436273
7.098778
7.1087481
6.8676627
6.792513
7.0502546
7.0384108
6.7638177
6.424161
6.5364944
6.6602656
6.3326183
6.5009941
6.529579
6.6854505
6.4026392
6.5897275
6.569163
6.5454269
6.2602067
6.2275974
5.9715945
6.0128302
6.3443554
6.3752391
6.0504385
6.2890838
6.3145485
6.0844887
5.7336865
6.012005
5.9807328
5.9458935
5.9074726
5.8646425
5.8158914
5.454088
5.508063
5.1416136
5.5483333
5.4923614
5.8752844
5.5722467
5.98197
6.0351338
5.6316937
5.3004531
5.7789995
5.7172615
5.2321361
4.7019699
5.125391
5.1894744
4.7214188
4.6548855
5.0813301
4.6451685
5.0580811
4.9905058
4.5474366
4.1081128
4.5757469
4.4925619
4.3193803
4.1794986
2.9680659
3.1791694
3.3038065
2.4189527
3.3703848
3.242096
2.2941091
1.3501112
2.048843
2.0403938
0.94173559
1.066815
0.56613917
0.49955239
1.3575237
0.74284423
1.4036206
2.1676477
2.1654857
1.2972887
1.3922005
0.6212296
1.1700286
1.0434776
0.55288896
0.30866171
0.34587678
0.78371319
0.32999075
0.29459386
0.25902676
0.27334318
0.28281595
0.34568059
0.58141601
1.0920759
2.301269
3.9668436
5.2717094
6.2746386
6.4070354
6.5573168
6.4276705
5.5811352
5.7371182
5.4345565
4.0232639
4.6132697
4.5027906
3.2237635
3.291388
2.2825049
2.6286231
3.5859924
4.5056857
5.2217656
5.843225
6.3063815
6.6931835
6.7543996
6.7901821
6.7292685
6.3590985
6.4376816
6.38825
5.9180956
5.992001
5.9179293
5.3384984
5.4342718
5.3211044
5.398945
5.476693
6.0593273
6.5078551
6.8511947
6.883737
6.8503045
6.5005384
6.5534807
6.630916
6.9329127
6.9023789
6.8445231
6.7870947
6.8709366
6.9268986
6.6303522
6.5221156
6.4437346
6.560276
6.1988263
6.0415443
6.1157072
6.2677467
5.8315739
5.6160704
5.5156802
5.7434371
5.9661159
6.3656551
6.6819819
6.9585952
6.7830845
6.6632888
6.3289572
6.9141826
7.0194336
6.5335478
6.1425414
5.9824447
6.4025295
5.7743357
5.1637912
4.778678
4.1680707
4.3406864
5.3085134
5.9126557
5.1796235
5.0214845
5.6885271
6.286632
6.7539217
7.1477183
7.4219332
7.6418749
7.8158715
7.8808085
7.9175085
7.8558801
7.8678278
7.9153652
7.9023456
7.9020337
7.8731186
7.8588202
7.8317354
7.7608316
7.4871461
7.7086242
7.7318505
7.7496103
7.6854154
7.4898184
7.6040054
7.5563074
7.3548899
7.4875744
7.4223438
7.2379691
6.8785744
7.1326119
7.0620353
6.9463617
7.4086016
7.6823024
6.94904
6.0349705
6.7332524
6.8328138
6.4227521
5.8629885
6.4225313
6.2874217
6.7556264
7.0627874
7.1328567
7.4229754
7.3559699
7.1500184
7.2393736
6.87906
6.9455719
7.2181204
7.5671873
7.4791389
7.4164745
7.5386459
7.7255239
7.7367157
7.7900135
7.7866578
7.7796623
7.650687
7.6687384
7.5720858
7.5939545
7.7593717
7.7609108
7.8112319
7.7983952
7.8056853
7.6933522
7.6974206
7.6066033
7.4563566
7.3879286
7.3095419
7.2362743
7.1581494
7.0928191
7.0308047
6.9892544
6.9631703
6.9615999
6.9843466
7.0243927
7.0398417
7.099026
6.8521495
6.8231623
6.7408743
6.7751052
6.7182181
7.0023501
6.980436
6.6888383
6.6483598
6.6797615
6.2941973
6.385484
6.5035979
6.5462105
6.4368447
6.0091556
6.1700636
6.1099678
5.9350856
5.7917468
5.8770442
6.3525752
6.30852
6.2465984
5.7150347
5.805863
5.1150479
5.2405016
5.462829
5.7095078
5.6274257
5.360285
4.6303924
5.0451382
5.1507951
4.7612631
4.3616728
4.2191943
5.122309
5.0141583
4.8768075
3.8651568
4.1038881
4.0120348
3.9385833
3.7119368
3.6604728
4.6161274
4.642333
4.5690522
4.7430454
4.673099
3.8460771
3.9199308
3.6538878
3.7011636
3.7587097
4.7203525
4.9033143
5.5890294
6.1297777
6.0639529
5.5123514
5.6920382
6.184027
6.5816673
6.6855584
6.979575
7.0079425
6.7300571
6.3868407
6.2453906
5.764528
5.9685931
5.9029682
6.3315327
6.4905208
6.8010849
7.0586334
7.0091088
7.1089121
7.0603138
6.8169273
6.8760305
6.7509678
6.4331327
6.5984277
6.5387427
6.1992365
6.2740438
6.0562559
6.1209506
6.1781638
6.5387744
6.8402655
7.0827381
7.1742532
7.1521709
6.9209056
6.9550335
7.068027
7.2548829
7.2370774
7.1967327
7.1539394
7.2525978
7.2929575
7.1157196
6.9989107
6.9409666
7.0676181
6.858393
6.7009196
6.7582866
6.9071439
6.6668029
6.4787665
6.403832
6.6065861
6.3348799
6.0896037
5.8300429
5.5368129
5.2369458
4.9314553
5.0116176
5.3144971
4.7273541
4.3084395
4.208756
4.6383066
4.024687
3.4806963
2.9829003
2.9954036
2.6078206
1.5637067
1.6043057
2.0881776
2.077938
2.0666426
3.0277114
3.9831654
4.8218963
5.092128
5.1726937
5.4680097
5.3933307
4.8064529
4.383693
4.4647796
4.0554932
3.0697225
2.6128544
2.5483621
2.8986788
3.4782344
4.0880689
3.4030278
3.3512753
2.61242
3.4303047
2.8843749
2.5530787
1.4608876
1.9074126
1.8634366
2.6250623
2.6456602
3.5406689
3.6226954
4.2590766
3.5422148
4.235767
4.3268398
4.8873002
5.3080177
5.6595381
5.2726801
5.6327732
5.2763166
5.6437818
5.6019489
5.5568482
5.1982483
5.5995707
5.6474823
5.2525535
5.3043959
5.6922135
5.3709278
5.7899299
6.1680405
6.1273489
5.7399282
5.6871299
5.3676939
5.434769
5.8933363
5.9467456
5.9967092
6.2050695
5.8365072
5.5647082
5.5007989
5.0001299
4.9226004
5.3119059
5.2513187
4.7873595
4.853668
4.3760504
4.2964447
4.8466011
4.7733152
4.2221442
4.1520669
3.5555746
4.2155131
4.8567266
5.4368011
5.5063628
4.9315735
4.5399522
5.2324187
5.1578108
4.464113
3.6822867
3.7474272
4.2892302
3.6200356
2.9180994
2.8768678
2.1932314
3.1647232
4.1033006
4.9153346
4.9908062
4.1719918
3.9216181
4.8366027
5.5544927
5.6269956
5.7206393
5.8738072
6.0560332
6.4556841
6.4977854
6.110856
5.9380562
6.3781539
6.3292113
6.2283703
6.2826323
6.6655216
6.9644924
6.937952
6.9170819
6.9159878
7.2141764
7.5480411
7.5484559
7.5542942
7.2480636
6.9984894
7.0127592
6.7356977
6.7031212
6.6690561
6.9739762
6.9892181
6.7038433
6.3349383
6.3835391
6.4666767
6.5714971
6.2117144
6.3703314
6.4041033
6.5546606
6.7040565
6.8496647
6.9901345
7.1232221
7.3319277
7.630034
7.8287599
7.9326214
7.9356633
7.9530789
7.9858254
7.9692786
7.9856469
7.9732058
7.9810217
7.9474803
7.9328217
7.9441602
7.8345585
7.8290438
7.8249193
7.8887327
7.8947207
7.8349592
7.8242563
7.7143076
7.7163022
7.6182384
7.7777287
7.7738901
7.6253377
7.6343561
7.7303489
7.7313392
7.8383921
7.7862323
7.7882863
7.7309073
7.829533
7.9113394
7.9455975
7.8536097
7.9173411
7.9649497
7.981395
7.8780918
7.8666623
7.8520046
7.8511208
7.7490089
7.7495492
7.6504253
7.8007894
7.7957686
7.6576913
7.6685611
7.7668945
7.8617805
7.9292239
7.8595846
7.7704874
7.8026207
7.8088339
7.74616
7.8635343
7.7345134
7.5612063
7.5528378
7.7356508
7.7420424
7.7283449
7.5382365
7.6413183
7.5567007
7.5874037
7.6457967
7.8343022
7.9439881
7.8942814
7.8883185
7.8241591
7.8236559
7.7730103
7.7765895
7.6166572
7.7153288
7.7135728
7.6241474
7.6334663
7.7875353
7.8344973
7.8380024
7.7856433
7.6406647
7.7308875
7.7297285
7.5821583
7.566788
7.5633304
7.5300458
7.5298733
7.4672777
7.4681463
7.3317931
7.4178693
7.4169617
7.3373125
7.3445102
7.4785302
7.5381501
7.5385177
7.4771657
7.3490574
7.4273426
7.4275376
7.2934615
7.3262081
7.3310559
7.2832038
7.2862454
7.1790188
7.1711755
6.9862625
7.1210009
7.1213315
6.9958427
7.0055026
7.1866565
7.1931613
7.2972608
7.1351101
7.1342428
6.9693282
7.0782132
7.3267028
7.5674876
7.5642801
7.5318847
7.5314094
7.4186093
7.4198794
7.3347776
7.4706503
7.4692894
7.3396608
7.3463926
7.4289344
7.53948
7.5396974
7.4285303
7.3506229
7.4786196
7.4802401
7.4156292
7.5219848
7.7169999
7.8257228
7.7202752
7.5128626
7.4096781
7.6584962
7.6529521
7.4212539
7.4319396
7.5310479
7.4250192
7.4894117
7.5492253
7.5826297
7.3556061
7.3506731
7.3162377
7.4482294
7.4380482
7.5483055
7.4869528
7.3601432
7.3567322
7.4401135
7.3084571
7.2983256
7.2947385
7.2878979
7.2853307
7.1745617
7.1816026
6.9986589
7.1229963
7.1354616
7.1359988
7.0145397
7.1946662
7.1885942
7.0074807
6.8029904
6.9703528
6.9581198
7.0703555
6.9521845
6.9566655
6.7892756
6.7770371
6.5442301
6.7467369
6.7489922
6.559145
6.5737185
6.8010285
6.8102565
7.0131264
7.0212087
7.1998482
7.3554427
7.4880538
7.5481725
7.5474381
7.4858689
7.359113
7.4372382
7.4391094
7.3075639
7.3552753
7.3504826
7.5870263
7.5559416
7.5560647
7.4943515
7.4964136
7.3650581
7.44758
7.4470194
7.3688435
7.2161419
7.3190244
7.3157067
7.3090229
7.2049466
7.0269515
7.1482858
7.1504871
6.985892
7.099751
7.1054421
6.9979955
7.1601664
7.1598241
7.0397282
7.0338365
7.2107238
7.1050142
7.2804491
7.4321495
7.5373169
7.727489
7.8288324
7.9108799
7.9449473
7.9808965
7.9646875
7.9167335
7.8515708
7.8663401
7.850746
7.7950712
7.8002204
7.6497978
7.7492376
7.7485887
7.6567974
7.6787414
7.6042866
7.6086691
7.5739888
7.5653087
7.5662359
7.505123
7.5025288
7.3784623
7.4571907
7.4591043
7.3748824
7.2223674
7.3297838
7.3811343
7.3773381
7.3388711
7.4678513
7.4671969
7.5735655
7.5100436
7.5129447
7.3845058
7.3882253
7.2391992
7.3425027
7.1864224
7.1860982
7.173296
7.3313929
7.2274281
7.0526557
7.0469746
7.1754381
7.0129893
7.1274326
7.3813136
7.6045117
7.6091861
7.3777496
7.339163
7.4680958
7.5743479
7.5656527
7.5667009
7.5566692
7.4475115
7.3694692
7.4950421
7.4972616
7.3657792
7.2114256
7.2058517
7.3097004
7.1488152
7.1511282
7.0222542
7.2010784
7.0941348
7.2716411
7.2656658
7.4152953
7.3425308
7.3439599
7.3305631
7.4051531
7.4045888
7.2461888
7.2530477
7.163238
7.1545324
7.3304311
7.2617726
7.2640443
7.0734032
7.0621599
6.9727144
7.1901718
7.1930742
6.9869477
7.0005879
7.0842108
7.1720328
7.2602954
7.0802047
7.0718493
7.0623536
6.9464024
6.9586854
6.7201457
6.8617041
6.8722013
6.8813508
7.0875475
6.9783118
7.1784169
7.0922087
7.2778812
7.2775814
7.2100612
7.2101854
7.0105737
6.7668459
6.8700435
6.8584282
6.969203
6.7338544
6.745601
6.6105469
6.5949632
6.576368
6.8446802
6.828524
6.7125641
6.7337186
6.4336682
6.4590029
6.7517403
6.6536292
6.9250694
7.1544655
7.3387652
7.606255
7.7740932
7.7748084
7.6235923
7.6703044
7.6645384
7.4396195
7.360215
7.6183309
7.588425
7.5945061
7.575404
7.5799278
7.6105383
7.3237062
7.2737112
7.2914001
7.3060152
7.3515394
7.1716576
7.224985
7.2899949
7.3547119
7.3520198
7.4237677
7.2759469
7.190137
7.1851932
6.9861596
6.9931262
7.1000319
6.8967008
7.0277352
7.0344007
7.1604241
7.1600703
7.3193962
7.2165593
7.0400779
6.8411984
6.9999071
6.9980994
6.987336
6.9863318
6.9733847
6.769246
6.7694975
6.750076
6.7482134
6.9541942
6.7812221
6.7922545
6.5619825
6.5482601
6.2941238
6.5473659
6.5573184
6.3101136
6.2910523
6.0142863
6.0384081
6.3122035
6.328689
6.5742857
6.7688119
6.7688187
6.9726943
6.5846486
6.3410822
6.5806798
6.3419163
6.58571
6.811564
6.8203838
6.8270614
6.6042511
6.7854189
6.7880235
6.596402
6.3541578
6.5948792
6.7878229
6.7852835
6.9870352
6.8265357
6.8194687
6.5957367
6.6038548
6.6131141
6.8344162
6.8409841
6.9997855
6.7995901
6.8022978
6.6116854
6.8023638
6.7996241
6.6202666
6.6132684
6.8346292
6.674313
6.9035726
7.1057446
7.2812934
7.4331354
7.4318108
7.2854761
7.2003731
7.360319
7.363517
7.1960041
6.9995837
7.0057347
7.1113634
6.9101621
6.7799471
6.7723685
6.7644508
6.7555714
6.8894169
6.6573677
6.6474147
6.6360227
6.6228231
6.607506
6.3369419
6.3562783
6.1415684
6.4474572
6.4265821
6.1148433
5.771401
6.0399255
6.06428
5.7477527
5.7168809
5.6820704
5.3534219
4.9847163
5.4272942
5.0773405
4.5460305
4.4597331
4.9197744
4.4501535
4.8898049
4.8307471
5.2258364
5.1729028
5.1173615
4.6813792
4.6169683
4.1775128
4.2438706
4.7087487
4.2424483
4.1754894
4.1046652
4.0363774
3.5468503
4.0093365
3.5131916
3.5889571
4.0380506
3.4406261
2.9922854
2.9099889
2.5051082
3.0636007
3.1230198
3.624608
3.0658511
3.553214
3.4789147
2.9809239
2.53863
2.6036319
2.1222713
2.5703179
2.6262508
3.0494771
3.5006503
4.1080214
4.175073
3.5626659
3.10954
3.7231744
3.6565351
3.1886211
3.6927244
3.7593814
3.1863272
3.6828104
3.6174428
3.1249054
2.6600436
2.7185702
3.253568
2.6846022
2.2229988
2.1708024
1.6188701
1.9801918
2.3339064
2.7735335
2.7369669
1.9638335
1.5435491
2.2984334
2.2657361
1.5260571
0.90463616
0.85808318
1.2342558
0.7829423
0.44906915
0.50904235
0.35366889
0.71870345
1.2534115
1.9137006
1.941749
1.270414
1.0235171
1.5847609
1.5485993
2.0530588
1.5726127
1.9714691
2.3667814
2.8624995
2.8966377
2.4043846
1.662789
2.1547445
2.1426466
1.6409743
1.3219658
1.3393133
2.0002367
1.6093884
1.0631011
1.0398997
0.61869535
0.77411753
0.99800647
1.4709598
1.4142056
2.2029785
3.1310994
2.7912416
3.8134018
4.6921122
4.7630788
3.863255
2.7979921
2.813232
3.2068081
2.1906261
1.6366613
1.6834521
1.7344184
1.7665477
2.8038781
3.7426218
3.7319741
3.8007822
4.6835698
5.4044713
5.9766227
6.4285978
6.3511816
6.393286
6.7537521
6.8112869
6.4680532
6.5268627
6.488816
6.5388799
6.871747
6.8985626
6.8683972
6.9153146
7.2288765
7.5472655
7.5105715
7.5262329
7.5844283
7.78658
7.8012521
7.7444721
7.5539922
7.2471646
7.2998492
7.5865258
7.581279
7.2709555
7.3677335
7.6331262
7.6015288
7.3329454
7.4534822
7.6743895
7.6589716
7.725544
7.8558508
7.9174432
7.8676921
7.7591292
7.6991625
7.7022354
7.6356816
7.3902434
7.4977933
7.4806855
7.5928002
7.5708839
7.7365429
7.7895306
7.7855221
7.7792483
7.7490769
7.6855552
7.8159775
7.7611583
7.4863383
7.6422369
7.4213951
7.4890948
7.6022981
7.7301365
7.7079949
7.5544458
7.3507852
7.1449747
6.9395184
6.7456987
6.8708588
7.2350544
7.4186105
7.4821682
7.0526499
7.1242581
6.8163697
6.4052835
6.2678557
6.0018143
5.6478303
5.8255689
6.388712
6.2487073
6.7143021
7.0460937
6.9240062
7.4014077
7.6800893
7.8578628
7.8310671
7.8726328
7.9016391
7.9019994
7.9150388
7.7975756
7.8052595
7.8108278
7.7606211
7.605586
7.6963785
7.6920155
7.6672233
7.6491416
7.5376522
7.3361417
7.2519248
7.1550179
7.0639285
6.9659704
6.8829395
6.8053963
6.8599864
6.5426477
6.467939
6.5752029
6.6425843
6.9364295
6.9872795
7.0135178
6.943104
6.6445503
6.5755668
6.1617743
6.1067242
6.0446682
5.4772493
5.5483166
5.6343
5.5644547
6.1015062
6.034479
5.9647565
5.9058369
5.3098582
5.4008747
5.4920372
5.6505188
6.1428222
6.0729817
5.5555481
5.7642696
6.2172128
6.2826545
5.8484553
5.915547
5.721019
6.2067746
6.5987905
6.6950659
6.7369973
6.394845
6.2635561
5.7875675
5.9766929
6.0345912
5.8527197
5.7043101
5.6206478
6.1658819
6.1695401
6.2267161
6.6290842
6.6271476
6.9370223
6.9612516
6.9409961
6.62072
6.5858418
6.6602835
6.6984087
6.6672834
6.9730413
6.9884668
6.7022193
6.7315082