/*--------------------------------*- C++ -*----------------------------------*\
  =========                 |
  \\      /  F ield         | OpenFOAM: The Open Source CFD Toolbox
   \\    /   O peration     | Website:  https://openfoam.org
    \\  /    A nd           | Version:  7
     \\/     M anipulation  |
\*---------------------------------------------------------------------------*/
FoamFile
{
    version     2.0;
    format      ascii;
    class       volScalarField;
    location    "210";
    object      omega;
}
// * * * * * * * * * * * * * * * * * * * * * * * * * * * * * * * * * * * * * //

dimensions      [0 0 -1 0 0 0 0];

internalField   nonuniform List<scalar> 
25278
(
155.33808
149.54553
148.49193
148.49181
143.87174
149.54566
155.97655
155.33825
155.97582
157.06077
155.10857
154.19035
151.12228
147.58529
163.41635
148.45058
149.53253
164.08708
179.59962
165.82038
154.77689
151.71933
149.02484
152.26795
157.01716
152.26723
149.02423
154.8743
156.79459
157.85024
162.65732
161.41507
176.30985
166.268
167.90618
169.84784
170.01909
174.2254
173.8717
185.60001
178.5448
178.88992
185.40395
185.37275
173.63046
162.69041
154.66764
157.54066
166.54051
166.83507
169.78045
168.75695
194.55544
186.64791
177.65741
177.88883
181.4988
181.22279
198.28503
192.03061
191.9683
197.80437
202.44254
183.95819
183.90187
185.5181
185.5229
205.07824
205.95995
203.08299
228.00272
219.13397
209.00114
198.91313
188.49553
181.52337
167.90359
157.84873
151.7141
149.74298
146.88688
163.32044
164.02782
179.20169
153.53505
150.64467
180.26333
212.5128
191.99717
173.19219
175.80445
196.30337
192.31923
234.20977
236.41244
195.97219
195.46158
175.78314
179.40791
200.60115
195.74235
237.80465
239.40549
200.32806
224.25983
217.23238
217.55449
294.44061
290.34144
352.83577
231.83076
239.70997
367.15801
381.07623
297.5439
300.58659
396.16435
249.42248
239.05444
239.28051
179.25378
153.53308
143.86051
192.72995
234.97049
291.24483
353.53738
232.00941
180.33129
150.64436
146.87639
149.72917
164.05396
163.36842
192.24519
212.8033
217.87953
239.92636
368.0783
295.45066
298.67371
382.27247
397.70457
249.71474
224.61169
217.55361
195.69671
196.23826
237.20083
196.75227
163.52651
173.34302
175.94879
175.90609
164.16137
179.51932
200.56875
240.23116
301.86857
454.466
759.99794
756.36275
451.76119
303.68468
225.48821
218.36594
241.49517
252.2342
408.90009
391.48111
300.31946
441.27942
697.56408
782.06793
1266.0442
1096.7844
677.63129
680.20212
1080.4394
1243.9363
778.89621
696.17974
443.41362
302.66436
238.61781
196.14874
201.01365
226.58944
306.23428
416.72083
397.8277
243.76665
180.03626
219.38389
254.91134
253.1429
434.86538
879.43154
1455.208
1486.0593
885.32012
425.23526
250.49638
224.95357
199.80457
179.49581
166.25136
156.78554
161.38913
162.64727
169.82255
176.21893
178.49162
178.85473
170.0056
174.19301
173.8243
185.47339
185.31487
185.31673
178.13653
167.55253
158.25368
154.66608
159.63463
168.66374
170.03298
163.94333
162.68768
169.60664
170.11733
178.46192
185.07947
174.17782
173.61267
177.1443
166.53617
157.54619
154.76618
165.75025
166.81174
177.56136
186.35308
191.7839
191.78017
177.82775
181.39533
181.07793
197.87182
197.4856
201.99918
183.82376
169.74129
168.65745
194.04206
183.70252
202.51791
205.37664
185.31394
185.38581
204.61576
204.03552
201.58725
197.30938
191.79073
191.31322
177.60552
180.90798
180.44447
182.7388
169.11338
170.1251
167.61034
177.0654
173.7524
174.2458
170.46751
178.28949
177.94021
184.70812
184.51632
190.3239
177.45722
180.50459
180.10598
195.75509
190.75013
200.0474
196.13391
191.68239
187.58671
181.12377
168.65598
159.63148
158.25232
167.549
169.61152
170.11412
174.18111
185.10503
178.46354
178.15454
188.31672
181.02587
188.2837
192.29122
192.79682
192.87452
199.07581
188.84
203.01202
202.11549
217.02226
216.48313
237.6619
217.63872
202.926
188.77555
188.41054
199.5735
202.01066
216.61656
198.66943
198.88279
216.14497
237.25726
237.77055
217.22581
239.31641
238.23528
266.55962
264.20396
248.61733
237.38069
226.31977
217.10406
208.02066
200.23398
200.25187
206.0299
197.61743
197.63004
206.49909
215.50694
215.22522
207.90544
201.95377
202.21719
207.34151
199.60158
199.53403
192.27462
196.88711
196.9108
205.5012
205.08719
214.02121
207.02848
215.84989
216.10519
217.00389
225.26422
226.0654
236.95919
236.30745
226.03338
217.10501
201.89136
188.27646
188.26644
202.17912
207.21751
199.51382
192.23971
192.72714
192.78114
200.09759
200.14014
205.83773
197.49151
197.46967
206.26633
215.17959
207.83867
207.75239
216.8076
216.88139
225.62807
224.88332
214.94428
214.38961
205.34465
196.81259
196.81628
192.24171
199.4701
204.96784
213.83098
206.929
215.71626
215.93734
224.1536
223.45303
222.66176
214.64206
200.62217
200.80737
187.59291
191.28383
191.71754
198.76685
198.74616
204.44207
204.09922
196.17496
195.55344
195.6002
191.31583
198.17277
198.17986
203.62835
203.30847
211.67665
205.25001
205.48676
205.9836
206.18643
213.21012
212.70154
222.01841
214.52583
213.71274
213.56081
220.72536
221.31516
212.15662
218.201
208.57239
199.31457
199.97
209.11717
209.60187
210.1969
200.76078
200.87665
201.60609
201.67802
208.8784
208.46553
223.77626
231.64777
231.62915
247.79908
218.2212
218.18188
248.94221
290.44006
260.91736
301.36201
301.23355
298.92941
260.69972
289.37282
349.87752
354.92432
439.62472
327.36829
265.75421
226.60145
247.78114
231.95952
231.50886
226.36239
264.41836
277.10717
279.19306
363.1748
409.64449
572.79429
589.02052
441.17922
327.2222
365.88888
326.60141
312.44098
296.78535
282.37035
268.97046
257.41866
246.36206
236.43509
226.08455
225.82742
236.94929
237.19733
249.29314
248.01463
235.83381
234.89097
224.85619
216.50777
225.03277
224.55084
234.33243
223.72557
224.4848
214.6235
221.40643
210.97371
201.02311
191.38183
177.6174
177.18038
180.50543
180.94099
196.71664
197.53848
191.9197
201.91575
209.33027
219.05273
249.84299
232.57507
232.68728
251.16637
269.40494
267.90301
227.60241
232.86252
233.48403
283.54948
281.26926
379.07996
336.47527
293.75573
262.32866
262.60707
304.79867
294.80418
362.17524
303.06408
300.82115
357.31495
462.82661
458.60217
336.06885
375.17811
610.07491
633.65341
516.96951
406.54632
336.11364
293.39522
262.21167
240.5565
222.46632
204.36887
184.25114
169.12077
170.11256
167.60383
163.94005
170.02502
170.45773
174.2325
173.7459
184.71107
177.93161
178.27684
184.50296
190.3163
177.44112
177.06058
180.11332
180.49391
195.13364
195.82134
190.77059
200.12546
196.18204
191.70317
187.58909
187.58526
191.28125
191.72539
196.2015
204.15533
198.79403
198.79107
204.52512
213.35599
206.26347
200.64349
200.81328
205.52071
198.19514
198.17279
191.30354
195.59233
195.5618
203.65896
203.3181
211.71444
205.26763
213.59474
213.77102
214.60304
206.03747
212.80487
222.17978
222.87347
214.74853
223.45462
214.97414
214.34603
222.15975
223.05324
232.40303
233.29914
244.75414
233.70777
235.22585
235.65219
237.1195
248.50908
249.84268
263.31297
262.02565
247.91256
261.64077
262.88066
279.53526
277.26746
275.35975
260.45191
247.23626
235.3103
245.42527
232.79355
233.75177
222.16075
211.59844
201.79828
206.23009
206.38908
217.76909
212.0143
222.37841
229.60384
229.01893
216.99719
216.20743
205.24678
205.07565
200.87303
210.40003
215.48722
220.35117
208.59714
208.90945
209.99455
210.30812
214.27121
213.89059
227.25999
222.23145
223.02068
228.42957
243.91306
236.59707
235.9547
242.8945
261.54912
251.72726
242.48904
243.88422
234.50519
247.3443
246.6945
257.81872
259.1319
277.7139
262.45299
261.11129
275.30031
273.23366
256.1832
241.24064
228.06143
227.0478
220.60947
231.76441
239.91405
248.40463
233.44569
234.7196
221.25804
226.07854
212.57816
212.20916
224.98075
239.80326
241.39069
259.53769
250.11457
268.13787
270.29901
271.73151
253.19652
263.79862
274.19684
250.8473
233.16257
217.55188
201.90844
182.82335
183.13863
184.53338
203.06553
200.79058
199.62952
182.22251
182.49614
183.74739
183.49836
201.72868
200.65109
198.69855
212.02202
209.50851
206.3646
203.12947
199.33567
200.0179
203.99893
204.12244
214.67969
209.75187
209.22095
214.00803
213.278
208.63409
208.15785
199.25554
203.04789
212.68542
216.88386
206.16379
209.26549
220.74148
221.65747
217.63079
218.52306
207.30699
207.5616
210.95458
210.64865
222.75243
223.78614
219.37088
232.16177
226.03131
219.80596
219.057
225.06543
237.30349
229.75946
230.73265
238.58132
246.68133
244.99647
230.9328
236.65383
238.20261
255.17134
257.38177
266.75935
245.98472
229.22294
215.05
215.55922
216.99193
219.88402
220.5056
237.51775
235.94144
231.91982
230.52972
234.35757
218.26149
217.68892
232.86851
235.56349
219.35829
220.02082
221.72856
222.78428
223.54322
242.21461
240.45283
238.91885
237.1962
238.65603
221.01045
220.32469
236.95537
258.28978
255.98338
251.5999
253.79504
247.88882
249.71273
255.87515
257.29743
284.99835
281.88599
271.84675
269.40674
279.08324
275.99976
283.7694
287.18194
258.40823
260.70577
263.22098
264.82755
298.27567
294.8208
290.24963
333.78916
317.96412
300.6972
284.49121
286.64142
316.94632
294.64478
292.17632
313.00241
309.6218
281.80612
278.91667
265.89052
254.46171
244.11728
257.89279
246.04832
258.93614
245.53401
235.10177
224.40214
233.98599
245.66207
246.7931
235.50459
246.45499
260.10398
258.62834
273.43922
271.54875
257.38865
244.12344
233.60455
223.33631
222.9604
233.2773
243.38771
232.18308
233.01751
244.43243
257.12477
255.7561
243.27517
233.35492
243.6491
242.49354
231.48414
221.43335
212.22549
218.32793
217.6586
223.28233
224.13751
236.08308
228.82982
227.96187
220.80072
230.68065
221.7871
231.757
232.04632
242.02244
231.9835
222.09163
221.74123
231.71681
241.37959
230.57058
231.317
242.2926
254.40676
253.21196
241.29841
253.33795
241.52265
251.82438
239.28649
240.38198
241.5722
242.81147
252.74371
251.07482
266.73825
254.70092
256.2688
268.88053
271.06769
286.60041
289.47587
314.66094
292.72166
275.32947
259.53671
277.34732
278.67353
297.69308
295.30959
318.05923
295.63198
297.9202
321.91061
351.51095
320.48293
318.05382
348.40754
352.01402
396.57992
390.69768
347.84024
343.83299
314.91093
293.17362
290.67832
273.30736
290.03539
311.65213
339.57457
311.10186
339.74209
305.90817
301.90829
275.91183
263.60341
261.34182
272.84413
252.97911
250.84501
235.15861
229.74678
228.6574
233.76696
248.83191
241.8718
234.9451
247.98103
249.48249
264.67593
253.21201
267.48921
254.58554
255.97171
269.74231
268.02403
266.43672
281.30918
265.75859
279.5128
262.73574
274.86339
257.06442
259.14322
243.3816
269.80909
266.88772
289.24909
293.44682
277.69366
280.64315
283.64177
307.38242
287.32056
271.29408
269.35874
284.63106
305.02256
285.79347
288.21314
308.33106
335.06961
330.37454
303.56093
329.23073
297.7228
319.68131
285.95449
261.21464
242.13166
226.56774
213.25692
213.69708
216.14949
215.64313
229.81901
231.25766
227.81984
244.03677
249.3303
247.07355
269.3217
272.72118
264.00943
289.99416
293.84138
297.41278
314.30568
310.14647
361.25948
330.55224
335.14491
339.1184
342.72475
302.90638
320.55323
375.46757
370.44763
366.34708
399.32555
329.89772
325.38105
334.40085
288.04124
291.62696
260.8299
260.48087
238.49074
220.94102
203.01099
184.52142
169.11114
157.53337
154.7681
164.04599
179.47838
195.4487
175.75158
195.54086
217.80799
240.94549
251.52084
224.8218
301.52494
404.95497
388.49347
298.47073
237.40601
238.99486
200.37008
179.35895
164.0152
200.30692
224.40364
300.46366
447.8682
771.90345
690.17109
438.01149
672.65401
1079.8761
1243.9894
749.89001
396.61552
381.22444
297.28756
217.34873
179.24864
239.26882
219.62207
303.61078
444.32178
676.42502
1075.4323
1236.7761
755.28993
455.57146
789.04156
703.3597
400.37326
420.05175
307.3248
226.87987
180.08977
244.13819
255.3701
253.58812
439.22755
893.6919
1444.7658
1455.5068
871.29842
420.01827
249.74024
194.43378
168.73544
169.76514
166.81297
165.78332
186.49032
181.14145
183.8279
185.48662
185.49702
183.89782
202.25631
204.99566
205.87808
202.86368
198.06436
197.61519
181.42831
177.83493
177.58756
191.86962
191.83447
191.81339
177.13907
166.52599
167.59477
170.10835
183.49101
183.74178
182.48279
182.19897
183.10481
182.77658
184.23176
204.29873
201.75571
200.67397
199.54832
201.68928
200.62514
198.65195
195.08904
180.47746
180.08488
180.90211
180.45116
197.38521
196.60465
191.31217
177.58895
177.04274
177.42825
190.28942
190.72615
195.74631
210.74071
213.46441
215.92913
217.581
218.58703
218.64466
217.74574
217.14901
218.01756
233.44168
232.20793
233.80717
235.11748
255.63743
253.46146
250.92873
252.95975
280.00076
276.19825
280.08108
284.13983
328.91829
320.18445
305.50394
300.44623
347.91785
355.12015
325.38089
374.66191
334.70755
374.82937
380.79419
386.06103
344.32553
386.41116
390.91987
393.33128
450.76667
449.36416
564.94941
457.3571
460.2126
567.11578
713.4029
730.71136
521.55991
402.89986
424.24209
343.02535
345.2712
428.18287
568.51039
578.53354
905.39734
871.303
1381.8049
1001.2721
705.88489
535.39459
444.01377
385.49693
348.19906
319.24672
297.04294
277.46654
261.28551
260.01687
245.78829
233.07871
221.69027
211.2925
211.64901
217.21909
206.04362
205.94534
216.53331
215.81798
210.71784
221.00998
220.28674
231.27322
232.20668
240.26622
227.42954
228.28239
228.77086
221.84102
233.7522
242.64507
241.38263
249.99567
234.86005
221.56908
209.61001
209.84715
222.25093
227.39698
213.66908
213.37667
226.35961
225.29859
220.69233
208.59747
205.01766
204.89619
215.17066
226.5204
239.07908
247.04421
232.62708
219.88221
208.34456
196.5804
200.58488
183.0945
184.48907
184.16813
184.1753
169.11307
157.53997
149.53233
148.44982
155.29202
155.96149
147.52933
148.98804
151.69677
154.76075
168.66474
169.74461
185.33016
194.09762
205.41302
204.64791
185.40383
183.85183
183.73893
202.61108
202.07655
197.55381
181.41704
166.81187
165.75602
186.42003
181.10255
197.95793
191.85787
177.58403
177.84298
191.83678
191.82955
197.36536
201.65038
204.06667
202.8786
202.85605
201.61606
199.51729
182.20741
182.50553
198.66511
195.11933
206.27308
203.0772
203.91154
203.99001
214.43498
213.83021
213.15878
212.61526
208.1292
199.25697
203.02742
206.11535
216.75441
217.42916
218.23749
207.16634
207.36888
218.99421
223.25219
210.68075
211.85833
212.15421
215.04204
216.37196
216.82268
231.87086
230.78049
234.61198
219.16929
219.67824
236.01342
254.6866
248.6561
242.22536
235.38607
251.30606
261.01907
258.99758
241.35309
240.01931
233.76516
248.55736
257.19972
255.29764
238.6208
224.32313
228.37242
214.62247
217.18946
217.66639
233.19187
229.5366
246.06329
247.68415
268.31874
270.44773
280.27435
277.43645
253.4331
251.58078
249.628
244.38265
263.79563
266.12423
274.89478
272.15475
279.40395
253.84078
234.50873
231.8706
230.42875
227.11874
213.35449
212.99548
210.44432
222.33433
221.35294
209.36429
209.17964
220.53547
233.32931
228.38433
223.13278
217.58192
227.81323
228.60545
229.45692
218.87349
219.55241
230.34004
237.89356
225.60517
224.74224
236.75547
235.66967
223.90723
229.35451
230.4035
231.4884
245.53123
244.06376
251.48622
235.85188
237.21368
253.37156
272.77679
261.73286
251.68265
242.24479
243.43354
244.62808
258.53762
257.02427
269.33528
253.21123
254.75729
256.24343
273.20623
275.45738
295.05814
292.81662
276.19706
294.76497
315.52424
319.27119
345.90244
315.53775
290.78501
288.46081
267.68316
280.39734
306.73299
310.43788
343.04051
339.47214
313.17365
342.20842
379.34376
385.27304
439.47521
378.28791
332.7726
329.15121
294.68442
309.8703
355.79324
360.91276
426.52289
423.4715
375.22192
435.2788
522.98911
528.53347
649.64406
482.71532
388.24154
384.03254
324.20653
285.25847
258.06305
237.52403
220.99354
221.61031
238.97728
240.729
222.74209
222.10721
239.15039
237.51943
235.96917
219.40819
218.85045
219.86707
220.45462
220.48231
222.14418
222.77516
231.61099
232.06017
248.08077
279.50302
277.44385
265.06901
226.58476
226.83166
266.40108
328.99068
364.15028
411.61941
576.38312
593.7353
367.08244
329.07098
445.91194
443.58454
357.51042
291.71589
249.52519
218.41055
224.12181
208.6519
209.04056
218.43509
248.36601
232.02534
232.07585
261.78379
302.78163
302.89803
300.57988
352.62464
290.71714
261.5512
258.16483
269.92624
283.58499
298.22449
313.95325
327.85417
336.45184
335.96257
293.24118
288.14062
259.39382
262.15397
260.73892
290.0698
287.16326
282.45948
255.99898
258.58979
256.31339
235.99374
234.32768
232.93582
217.34166
215.75136
215.33888
229.15709
226.01739
224.8585
211.84039
211.54515
223.87218
226.66669
213.67825
214.02338
227.81691
243.75557
239.41413
234.54731
249.67008
242.66472
241.34896
234.65629
247.48625
239.04385
240.04082
241.11923
254.09293
255.51685
267.37408
265.46957
250.20217
248.80243
263.65707
252.73209
251.47985
261.96612
278.45196
265.33071
266.92456
268.64843
270.45864
272.35231
274.27295
292.35854
289.93086
309.37255
287.87192
290.36588
271.30403
285.97119
265.73782
263.73973
283.3841
300.2079
275.39645
277.95982
303.57856
335.47094
309.9718
306.6817
334.2505
338.30212
312.47875
338.59777
313.73041
316.84075
344.26666
375.55689
342.43657
346.27555
352.60823
355.81678
455.7969
448.82778
443.07865
563.84689
435.72717
441.59318
576.21795
853.54505
645.8788
663.05703
1224.2667
1076.2274
1495.0034
1692.0934
872.92269
1299.6717
852.9715
631.61841
618.19378
851.83492
836.10897
1423.0925
1011.5287
1142.6876
1602.3784
2201.3427
1931.87
1205.6336
1973.6441
2254.6031
2472.5782
2134.31
2124.3087
1948.626
1477.6481
1059.6389
600.48826
372.45276
282.70047
233.22169
232.60134
227.05108
227.43877
267.75638
266.20321
280.34178
375.65333
331.43303
331.76228
447.68679
449.43965
620.63812
561.58809
425.00005
343.81886
297.57621
264.47728
242.03871
223.45911
222.71169
221.49299
222.21627
240.06616
238.45808
240.27504
262.86643
259.77315
261.28993
291.51544
288.35808
294.07432
290.86169
287.27599
257.95052
236.80023
220.26471
219.17082
219.81533
236.75784
235.1579
232.33448
217.4349
217.97702
219.5667
220.15927
217.17295
216.64459
231.26871
235.31554
236.85936
232.46301
249.62012
256.09732
254.67683
248.51137
269.67578
279.5674
282.6695
271.98936
261.96713
242.84374
227.79612
213.91292
218.55977
218.60936
224.27705
208.65126
209.01214
231.874
248.54524
249.84257
231.94944
261.26107
291.97378
302.30417
356.70204
351.43059
290.71296
260.98198
298.80953
301.08063
265.9841
237.71389
216.67537
198.72753
185.50155
173.82617
162.63817
151.69993
154.64645
162.67541
163.92696
159.61741
156.98827
158.23711
157.83349
154.8485
156.77414
161.38973
176.2381
169.81903
167.88935
169.9988
174.18961
185.32794
178.85354
178.49557
188.4147
181.49906
188.77715
198.92177
216.1924
202.90659
201.98477
199.60037
179.45042
166.24078
199.56863
238.93913
217.09143
217.53055
237.20411
263.72492
237.23994
237.71496
216.66726
201.98398
202.91214
188.778
188.40819
198.71903
198.93116
216.2074
216.91869
201.88807
181.0161
188.27444
192.79396
185.31912
173.60336
174.16234
170.10274
167.53986
169.59806
178.13084
178.4501
185.0698
184.68996
173.73282
174.22427
170.45097
168.65065
170.01587
177.9235
178.27197
184.48935
195.53151
199.28828
203.04719
206.255
209.36435
211.86552
214.08523
215.55972
216.44084
216.48294
215.67904
214.24045
213.81289
211.65612
224.15935
225.26901
228.31445
227.01796
229.09527
215.17043
215.94541
230.17002
231.69853
230.54903
248.41073
244.85243
240.2727
238.53587
242.75339
262.54966
255.81427
258.45496
265.88972
272.20666
268.23925
246.00847
247.72913
250.28612
275.70796
271.41288
308.25834
301.23719
289.65969
277.76792
281.83548
295.09214
339.70856
313.60268
307.36933
330.80831
359.19048
370.5347
307.94704
314.33932
322.64676
402.17951
380.22524
388.16431
394.48932
416.73057
421.26146
339.08031
337.3317
341.39576
329.82502
332.47416
398.74823
394.3052
420.51453
417.01205
411.95446
332.54947
321.02237
281.8613
255.11243
257.49789
285.25913
276.77615
252.63819
233.77413
229.9272
215.25409
214.77948
228.67967
244.93179
250.50749
273.75888
264.75268
267.28729
246.74867
240.43482
225.54864
212.29441
213.56755
209.72442
210.00621
222.50457
221.76625
226.67445
241.87074
235.16695
235.75651
251.83692
250.44781
259.80075
257.87434
255.83904
238.9404
224.50936
211.9598
208.39408
208.67951
220.84107
219.98791
215.22626
204.92145
205.06302
206.0172
206.14115
201.73349
201.64203
211.36179
216.6488
217.37387
211.73584
221.96332
228.98997
228.46185
221.79082
233.19748
241.61469
242.92735
233.88976
246.49997
257.76179
269.68037
283.71179
299.12833
316.32559
313.46514
296.80328
332.2841
361.68598
367.25944
336.16986
382.84961
436.1413
501.21335
502.53155
569.74591
887.3672
857.72486
681.17643
690.41984
698.33677
499.7571
389.75191
325.69491
309.67297
305.48383
290.04123
293.52137
328.10449
356.98741
351.44384
383.97062
494.92622
573.97521
587.19908
521.72038
441.54375
381.0837
447.98166
453.30138
566.24193
446.19853
522.37301
583.74897
949.77687
749.83663
770.67555
565.95727
563.75056
435.01066
426.24653
367.15765
432.7949
368.20959
360.98217
323.46179
299.7014
282.01506
301.76563
283.48547
301.62403
283.01206
285.22073
287.53712
306.25445
285.38486
282.95918
303.18196
300.20585
280.63185
296.65269
275.66159
257.89074
259.77132
278.16676
280.75995
296.69114
293.108
270.16698
267.62176
265.20584
256.12806
273.29418
286.16098
289.55412
316.95032
321.79655
299.95946
303.32105
330.05919
325.79721
357.587
363.67394
326.57404
331.16145
369.37087
374.59806
430.11171
370.41736
325.28312
291.66025
288.45466
321.01396
346.46061
302.617
306.42032
351.49176
418.79299
412.82973
364.99119
423.88154
514.82136
519.93117
663.60124
480.81347
379.82818
320.45914
316.25131
374.57904
396.69464
325.62339
283.95379
280.49908
276.16209
269.28905
261.40036
242.67604
241.02532
259.01794
266.38357
245.68006
247.63402
251.61265
249.39599
231.51428
216.84375
217.75083
218.28975
218.30918
201.63299
183.49161
183.48799
183.75946
200.61507
215.45857
215.03067
228.72956
230.02188
231.24481
216.2971
215.83497
229.86615
246.96931
245.12161
241.94806
237.91045
254.47241
247.95923
246.37559
240.13314
233.71267
227.06385
220.07644
212.6074
199.33669
180.45788
168.45885
160.27061
159.34229
155.10967
158.77139
158.11445
158.77022
161.96629
160.42199
157.06396
160.27394
161.80512
169.66911
168.4677
170.22368
164.16858
165.5838
170.86191
170.80887
178.20679
177.72122
184.20352
173.80115
174.40623
184.09006
183.84467
177.84944
178.24411
171.37711
174.71324
174.1595
177.06364
168.77856
159.36103
162.45101
169.02872
166.09546
162.68528
164.30694
171.03848
169.72838
171.29342
171.99263
178.31686
177.81817
183.49939
174.45831
175.16067
183.42465
183.19889
178.0864
172.24018
167.59743
173.11884
178.55254
175.98078
175.14281
177.75086
170.38225
178.63805
187.78741
188.17553
177.83249
177.19632
177.53627
188.82645
183.73531
189.80762
186.53718
180.68499
169.66265
161.8016
165.57197
164.16594
170.21385
170.79839
174.38736
173.78513
184.18088
177.7067
178.19319
184.06352
183.81847
174.1396
170.85284
171.36563
174.69497
183.7091
178.2319
177.83665
186.46817
186.99882
186.89994
190.78677
190.85062
195.04796
194.9726
202.85214
197.50266
197.56177
202.57172
202.16879
194.49631
190.47634
190.53707
194.5668
201.89862
197.0699
197.04533
204.02097
199.61911
199.33329
204.59235
204.44415
210.74559
211.17171
220.11597
212.62888
212.59003
219.59483
219.02403
210.29343
209.88942
203.83647
211.80513
211.89525
219.87948
212.55466
199.62561
187.01161
186.91416
190.80433
190.87452
197.57878
197.51144
202.86014
194.99089
195.07721
202.59216
202.19816
197.06733
190.50415
190.56651
197.0976
201.93298
194.6037
194.53152
198.04238
189.52529
177.4086
167.52184
176.9058
189.85784
194.44591
179.72458
180.25327
193.95521
193.40024
189.13066
197.45093
194.04769
190.10822
186.4806
198.33381
198.59226
202.73447
196.05892
196.55555
190.17351
194.12192
201.2774
201.53177
196.49845
203.25957
203.85775
204.03279
204.44837
204.58728
211.1576
210.75285
219.577
212.58162
211.88694
211.80856
218.55454
209.91661
210.31398
219.02224
228.50766
219.8694
220.59002
213.011
220.86265
220.61199
229.20287
229.8642
240.51016
230.48396
230.32051
239.70967
238.87701
228.52693
227.94231
218.54729
217.99282
209.43529
201.49747
194.00907
190.07932
190.14732
194.09042
201.25117
196.53605
196.47252
203.24256
198.32827
198.58456
186.52528
189.78651
189.83817
193.63436
193.56954
200.87697
196.04186
196.06131
200.61997
208.28758
202.54381
202.72113
203.11908
209.07056
217.56859
210.95163
210.95301
218.84512
211.39812
211.01789
218.01299
210.30631
210.23212
216.64359
217.07379
208.66032
213.93149
205.19993
196.86149
188.792
177.50839
168.76063
159.35354
162.44168
160.4204
162.67973
166.08112
171.28003
169.71803
171.98171
175.13507
174.43959
183.47212
177.80731
178.31051
183.38767
180.20448
185.95192
186.04629
189.13398
189.4702
189.40064
193.10798
193.17902
199.98492
195.53973
195.4867
200.23215
207.85362
201.97333
197.2915
197.54524
201.45814
195.06971
195.05986
189.19583
192.73129
192.68817
199.60822
199.31348
206.66689
201.25514
208.68141
208.78894
209.41453
201.85357
207.49811
215.71963
216.13004
209.41794
217.07106
209.92548
197.30014
185.9669
186.07505
197.55596
201.49099
195.09789
189.16358
189.48411
189.41482
189.85587
196.07535
200.64005
193.65619
193.59652
200.89668
208.68191
209.09384
203.13357
210.95603
210.95652
218.01021
209.4658
214.90748
205.99936
206.43431
198.02198
201.5157
201.51613
202.23815
198.61873
198.63328
207.63373
207.24985
211.54147
212.01251
202.23961
205.28055
205.18043
215.45846
216.03605
219.67258
208.1842
208.07514
218.97866
218.23495
214.82564
211.00165
206.80462
215.9121
216.44594
216.98202
222.39692
221.72533
232.84836
226.38391
225.73348
225.12389
215.41409
220.47833
210.56713
214.30841
204.3458
204.4231
207.17911
207.10445
217.63389
229.35228
225.13982
225.85719
221.08065
232.04376
231.29987
237.09725
238.01653
239.02468
226.64362
227.46908
232.19382
231.16784
244.94332
243.64946
230.21924
234.07687
221.16877
209.34285
197.16858
182.10337
169.74853
170.98306
181.51456
179.70738
180.20257
192.96781
195.95901
181.94755
183.02708
182.59393
183.2535
182.80285
181.64463
197.81094
199.62921
198.89473
198.1417
196.4971
208.30832
206.25395
203.61618
200.80973
200.82006
197.43738
205.64888
209.64669
210.05498
219.8933
219.34005
214.43667
223.97503
217.58724
217.09026
210.30859
210.24176
202.55607
208.30594
216.66253
225.78053
217.81791
218.01226
218.66538
218.84069
219.62928
229.1352
229.24232
230.30859
230.45398
220.83513
229.79894
229.17215
239.65791
240.4277
252.05972
240.1764
239.60486
251.12105
252.14745
264.97346
263.66945
251.07074
250.11923
238.65137
229.25276
229.14114
219.64042
238.21024
249.31792
238.19254
249.30817
238.19816
227.94533
227.32937
226.82308
236.92264
228.02949
228.0653
237.48737
248.51551
237.32188
228.07002
228.02877
218.67427
226.81419
227.32131
237.47938
236.91486
236.27262
226.2609
225.76364
217.8137
227.04685
227.09125
236.16351
227.08789
227.05177
235.76254
236.28494
226.27005
233.80231
223.42676
213.95878
205.22615
196.89415
196.86937
204.88143
208.76139
200.14915
200.14667
209.15733
218.79002
218.26166
213.49862
222.88955
228.68903
229.30391
229.93811
230.59417
224.53305
235.06402
235.75991
236.48025
237.26741
238.11238
250.31707
249.27154
259.00078
245.17865
246.27859
260.41325
276.44813
263.87194
262.54984
277.35511
279.05928
280.94571
297.39563
317.45616
293.50578
312.20276
344.91621
351.26067
321.55833
350.95863
323.08319
326.89301
304.54319
307.55923
310.63904
336.41963
340.37456
370.84883
365.98842
334.71456
366.65017
371.58587
376.41074
380.20545
422.79354
381.52537
426.20458
420.49318
381.74895
438.36535
489.21641
497.92641
557.25479
475.41682
469.71286
416.98564
479.39438
426.37458
432.10102
488.12627
551.40954
542.65771
632.39772
548.28783
540.09846
482.7041
432.9601
376.86373
371.80195
426.90474
475.41272
408.56702
414.66258
462.55618
411.19919
405.1816
465.65434
414.68816
420.77985
472.87084
534.55192
525.70746
455.10809
531.10784
612.3677
623.05054
779.57855
678.0128
604.69382
530.33409
534.36167
711.94673
849.3766
609.93441
613.19306
848.08236
1282.0808
1360.1864
1057.5816
1532.4768
2160.334
1923.8038
2237.226
1441.9191
959.96393
690.16091
685.849
959.79357
1093.7523
788.73383
797.51625
645.35669
788.77797
674.698
591.92742
511.5769
509.03914
587.89802
801.42805
658.59333
656.85573
801.94609
924.55901
924.01844
670.35278
779.98959
1066.4029
1070.901
1527.504
1380.5773
1199.3099
907.23628
948.02928
657.04589
483.62768
536.96931
405.08895
333.68576
329.95686
401.53974
538.26297
537.4009
476.22014
667.61967
869.52676
841.64099
813.14298
791.70086
531.11854
409.50532
410.56836
406.31559
334.23061
290.32204
260.8638
239.21323
240.79198
239.16367
221.70844
221.08841
237.70518
236.14054
237.58842
236.05025
219.90522
218.93551
219.50319
217.78213
200.63457
183.11014
184.49744
182.76478
180.45524
166.53277
167.60478
170.12359
183.76129
200.62392
198.68411
182.51204
182.22131
199.55425
195.78301
180.1102
180.91783
196.61777
191.34071
177.60583
177.15211
173.61605
162.67786
154.64652
163.93123
173.74593
177.06352
177.45262
180.50782
195.13514
190.32993
190.76502
184.71442
185.09393
174.17556
170.10914
167.54552
169.60529
170.0088
174.20833
162.64046
161.38717
176.26189
173.8385
185.5271
185.35223
178.87925
167.90353
169.83175
178.52688
188.49728
198.80319
199.77293
216.9187
216.41043
198.99602
188.84613
181.58945
202.20988
203.0986
217.97492
237.80002
238.36677
240.10346
267.72151
265.2758
238.34937
239.00645
217.61063
202.37444
200.15458
179.57954
166.2653
154.84928
156.77362
157.83237
158.23438
156.98846
159.61447
168.65287
170.02185
170.45662
174.24072
184.51661
178.28551
177.93309
178.46358
178.14848
185.34404
197.54644
201.77226
206.15727
209.98066
213.81457
216.97879
219.81619
219.30293
234.85663
236.27769
232.1536
231.04484
216.50885
215.16892
214.73697
217.30377
232.08237
234.67826
254.17414
256.44414
258.71539
287.43285
284.22168
280.09498
283.14983
256.34853
258.40885
259.73174
262.27656
293.47721
288.8102
285.93873
278.29228
253.89538
255.14734
281.12702
271.30683
249.14032
248.15748
269.17355
266.96066
275.7571
252.02573
233.42377
229.7732
228.59659
244.80541
250.05982
272.99943
264.59887
262.16373
270.10569
276.84167
280.77731
254.07426
253.95461
251.58563
232.82899
232.87367
217.77599
216.90752
217.42089
233.0794
234.38532
231.64745
230.13814
231.28978
216.31227
215.85112
229.89988
228.82711
215.07482
215.51377
214.09591
215.43115
215.84909
230.62617