/*--------------------------------*- C++ -*----------------------------------*\
  =========                 |
  \\      /  F ield         | OpenFOAM: The Open Source CFD Toolbox
   \\    /   O peration     | Website:  https://openfoam.org
    \\  /    A nd           | Version:  7
     \\/     M anipulation  |
\*---------------------------------------------------------------------------*/
FoamFile
{
    version     2.0;
    format      ascii;
    class       volScalarField;
    location    "210";
    object      T;
}
// * * * * * * * * * * * * * * * * * * * * * * * * * * * * * * * * * * * * * //

dimensions      [0 0 0 1 0 0 0];

internalField   nonuniform List<scalar> 
25278
(
299.99616
299.9957
299.99691
299.99683
299.99912
299.99545
299.99465
299.99609
299.99491
299.9901
299.99213
299.99446
299.9947
299.99641
300.01379
299.99698
299.99575
300.00678
300.01342
300.00186
299.99601
299.99539
299.9954
299.99233
299.98856
299.99221
299.99533
299.99489
299.99841
299.99357
299.99444
300.00016
300.00355
300.00117
299.99441
299.99694
299.99287
299.99342
299.99794
299.99953
299.99852
299.99346
299.99418
299.98927
299.99009
299.9893
299.9906
299.98953
299.98956
299.99555
299.99652
300.00299
300.00972
300.00743
299.99911
299.99419
299.99523
300.00042
300.00346
300.00135
299.99555
299.99715
299.99865
299.99599
300.00118
300.00171
299.99651
299.9995
300.00579
300.00485
300.01291
300.01041
300.00664
300.00332
300.00123
299.9966
299.99426
299.99342
299.99523
299.99981
300.00384
300.01414
300.00683
300.01428
300.00183
300.00689
300.0241
300.06278
300.04647
300.02898
300.02411
300.03993
300.04534
300.07516
300.06857
300.04077
300.03395
300.01936
300.01337
300.02591
300.03346
300.06053
300.05055
300.02599
300.0409
300.0489
300.05635
300.10984
300.11575
300.15078
300.07698
300.06998
300.14409
300.1345
300.10229
300.09211
300.12246
300.05242
300.06093
300.06291
300.016
300.00227
299.99923
300.05091
300.08091
300.12003
300.15209
300.07798
300.02551
300.00736
300.00476
300.00051
300.0093
300.01673
300.05066
300.06603
300.06068
300.07142
300.14657
300.11588
300.11037
300.13861
300.12882
300.05515
300.04718
300.05393
300.03955
300.04588
300.07553
300.04634
300.01735
300.0331
300.02879
300.02406
300.00997
300.01843
300.03252
300.06018
300.10279
300.22533
300.37011
300.35466
300.2099
300.09054
300.03998
300.04692
300.05544
300.04859
300.114
300.12279
300.09915
300.20776
300.32248
300.33846
301.23088
300.94083
300.34447
300.35247
300.94138
301.23418
300.34793
300.32985
300.21852
300.1096
300.06869
300.0402
300.03332
300.04898
300.10303
300.12564
300.13354
300.06441
300.01808
300.05508
300.05807
300.04272
300.11292
300.36151
301.55277
301.54955
300.34974
300.1001
300.03345
300.02625
300.01421
300.00602
300.00108
299.99833
300.00003
299.99421
299.99668
300.00327
299.99819
299.99305
299.99255
299.99296
299.99757
299.99898
299.99353
299.98862
299.98914
299.98782
299.9896
299.99028
299.98618
299.98242
299.9831
299.98427
299.989
299.98973
299.98557
299.98389
299.98324
299.98503
299.98963
299.9899
299.98913
299.98892
299.99586
300.00182
299.99529
299.99873
300.00726
300.00072
299.99469
299.99365
299.99468
300.00015
300.00288
299.99621
299.99798
299.99563
299.99656
300.00346
300.0105
300.00118
300.00466
300.00648
300.0023
299.99663
299.99951
299.99247
299.99119
299.98988
299.98897
299.98285
299.98483
299.98494
299.99052
299.9912
299.98958
299.98268
299.98326
299.9816
299.98216
299.97986
299.98108
299.97809
299.98053
299.97904
299.97647
299.97493
299.97898
299.97822
299.98125
299.97753
299.97795
299.97515
299.976
299.97736
299.97757
299.97861
299.98262
299.98645
299.98977
299.98797
299.99004
299.98592
299.98554
299.98389
299.98429
299.98952
299.98888
299.98655
299.98222
299.98343
299.98613
299.99029
299.99556
299.99438
299.99617
300.0053
300.0094
299.99882
300.0057
299.99911
299.9958
299.99393
300.0009
300.01395
300.00504
300.00866
300.00266
299.99472
299.99787
300.00492
300.01864
300.01037
300.03536
300.01922
300.03591
300.01739
299.99546
299.99335
299.99182
299.99068
299.99024
299.98992
299.985
299.98478
299.98574
299.99048
299.98964
299.99015
299.98412
299.9843
299.98834
299.979
299.98022
299.98175
299.97766
299.97994
299.97907
299.98289
299.98088
299.97688
299.97447
299.97554
299.973
299.97882
299.98356
299.98369
299.99071
299.99278
299.98405
299.98335
299.988
299.98797
299.98844
299.98178
299.97862
299.97937
299.98096
299.98272
299.98542
299.98957
299.98914
299.98418
299.98367
299.9848
299.98954
299.98855
299.98894
299.98943
299.98345
299.98268
299.98988
299.98939
299.98232
299.98286
299.97795
299.97978
299.98195
299.97814
299.97925
299.97686
299.9758
299.97324
299.97472
299.97214
299.97797
299.97642
299.97064
299.96607
299.96872
299.9726
299.96909
299.97473
299.97383
299.9749
299.97168
299.97459
299.97279
299.97006
299.97332
299.97216
299.97132
299.97303
299.96971
299.97049
299.96851
299.96782
299.96384
299.96654
299.96731
299.96874
299.97191
299.96953
299.96637
299.96225
299.96483
299.96312
299.96239
299.95926
299.96001
299.96452
299.96235
299.96686
299.97103
299.97233
299.96863
299.97155
299.97495
299.97755
299.98157
299.9848
299.98997
299.99683
300.00581
300.02611
300.01458
300.00252
300.0084
299.99964
300.00958
300.02242
300.04469
300.03006
300.07462
300.05792
300.0376
300.01503
300.02787
300.06503
300.09061
300.11668
300.05604
300.02846
300.0127
300.03527
300.01566
300.00565
300.0029
300.01512
300.02048
300.03421
300.06566
300.10441
300.1336
300.12422
300.10013
300.04284
300.05404
300.02258
300.01801
300.01176
300.00628
300.00093
299.99687
299.99388
299.99147
299.99112
299.98258
299.98297
299.99291
299.99402
299.98369
299.98268
299.97527
299.97664
299.97597
299.97741
299.97076
299.96959
299.97198
299.97778
299.9792
299.97913
299.98071
299.98276
299.98381
299.9855
299.99049
299.99115
299.98574
299.98431
299.99097
299.98989
299.99107
299.99808
300.00112
300.01065
300.0042
300.01568
300.02374
300.02889
300.017
300.00403
300.00569
300.01459
300.03253
300.0206
300.05436
300.04599
300.03108
300.01703
300.03119
300.07475
300.04633
300.09319
300.05877
300.03934
300.06938
300.1063
300.11865
300.05646
300.06267
300.12869
300.12589
300.08159
300.04845
300.02547
300.01193
300.00328
299.99833
299.99646
299.99288
299.9921
299.98989
299.9836
299.98398
299.98474
299.98346
299.98153
299.98049
299.9827
299.97967
299.98091
299.97852
299.97714
299.97592
299.97982
299.98232
299.98214
299.97931
299.97522
299.97878
299.9789
299.97628
299.97689
299.97802
299.97795
299.97514
299.97447
299.97554
299.97418
299.97104
299.97239
299.97532
299.97382
299.97068
299.97269
299.97292
299.9694
299.96799
299.97116
299.9704
299.97369
299.97218
299.97301
299.96944
299.96874
299.96481
299.96722
299.96303
299.96377
299.96556
299.96947
299.96745
299.9634
299.96732
299.96949
299.96642
299.96771
299.9633
299.95982
299.96203
299.95902
299.96378
299.9601
299.96273
299.96832
299.9764
299.98349
299.9849
299.99517
299.99941
299.98703
299.98412
299.98624
299.99862
300.00497
299.9904
299.97717
299.97602
299.97603
299.97665
299.97739
299.97798
299.98476
299.98467
299.98508
299.98596
299.98635
299.99194
299.99142
299.9904
299.99138
299.99293
299.98579
299.98572
299.98104
299.98307
299.97855
299.97872
299.97639
299.97634
299.97678
299.97882
299.98346
299.98709
299.99279
299.99399
299.98803
299.98817
299.98682
299.99275
299.99443
299.99743
299.99494
299.98749
299.98964
299.99269
299.9893
299.98657
299.99509
299.99258
299.99581
299.98594
299.98896
299.99965
300.00571
299.99967
299.98804
299.99264
299.98087
299.97944
299.97915
299.97976
299.97405
299.97392
299.97153
299.972
299.97348
299.97486
299.98103
299.98178
299.98291
299.98427
299.97937
299.97762
299.97629
299.98284
299.98421
299.98125
299.98287
299.99326
300.00437
299.99819
300.00225
300.00583
299.99966
299.99591
299.9949
299.99216
299.99172
299.98607
299.98636
299.98572
299.98514
299.97918
299.98223
299.97917
299.97921
299.98236
299.97956
299.97515
299.97501
299.97078
299.9707
299.9709
299.97129
299.9721
299.97343
299.97279
299.97594
299.97253
299.97293
299.96993
299.96923
299.96713
299.9681
299.96731
299.9712
299.97028
299.96618
299.96545
299.96976
299.96945
299.9651
299.96648
299.96659
299.96899
299.97258
299.97594
299.97625
299.97265
299.9692
299.97314
299.97261
299.96954
299.96921
299.9696
299.96601
299.96519
299.96075
299.96168
299.96612
299.96585
299.96661
299.96078
299.96503
299.96554
299.97052
299.96836
299.97588
299.97897
299.97813
299.97871
299.98
299.98504
299.98894
299.9899
299.99591
299.99745
299.99099
299.98964
299.98419
299.98545
299.9859
299.98077
299.97984
299.98071
299.98126
299.98643
299.99046
299.99078
299.99676
299.99884
299.99241
299.99195
299.98637
299.98682
299.9867
299.98155
299.98116
299.98234
299.98154
299.98003
299.98701
299.98494
299.99197
299.99412
300.00196
300.00974
299.99995
299.99643
299.98766
299.99112
299.98223
299.98487
299.99377
299.98855
299.99568
299.99645
300.00407
300.01338
300.00391
300.00254
300.01501
300.0106
300.00474
299.99866
300.01044
300.02276
300.01291
299.99927
300.00766
299.99376
299.98764
299.97685
299.9729
299.97041
299.96936
299.96751
299.96732
299.96544
299.96616
299.96781
299.97002
299.96823
299.96611
299.9748
299.97589
299.97532
299.97521
299.96464
299.96429
299.953
299.95638
299.95918
299.96226
299.96572
299.9614
299.95705
299.95315
299.95786
299.96251
299.95896
299.95564
299.94834
299.95307
299.95748
299.95416
299.95039
299.95607
299.96105
299.96552
299.96376
299.9629
299.96143
299.96253
299.95731
299.95883
299.9578
299.96024
299.95511
299.95902
299.95362
299.95446
299.94946
299.9541
299.95927
299.95849
299.95328
299.94837
299.95417
299.95505
299.94951
299.94361
299.94198
299.94835
299.94247
299.94915
299.94502
299.9519
299.95325
299.95691
299.96251
299.96248
299.95588
299.95047
299.95166
299.95881
299.95912
299.96937
299.97334
299.98621
299.99199
299.98388
299.97876
299.97754
299.9919
300.00609
300.01486
299.99892
300.00765
299.99761
300.01452
300.02757
300.04338
300.02547
300.00888
300.022
300.04003
300.06658
300.04219
300.02228
300.00074
299.98894
299.9815
299.96586
299.96623
299.96922
299.9702
299.97875
299.9752
299.98494
299.97961
299.96619
299.96686
299.96391
299.9562
299.958
299.96179
299.95684
299.96192
299.96192
299.96049
299.96011
299.95423
299.95467
299.95588
299.94936
299.95132
299.94432
299.94685
299.93964
299.94417
299.949
299.94372
299.93747
299.93501
299.92772
299.937
299.93209
299.94153
299.93908
299.94769
299.95052
299.95662
299.95103
299.94711
299.93807
299.94403
299.94324
299.95111
299.96147
299.95938
299.95585
299.95514
299.94594
299.94443
299.93765
299.93989
299.95173
299.95275
299.95755
299.93844
299.94535
299.94953
299.95397
299.95961
299.96137
299.96374
299.96661
299.96977
299.97292
299.97673
299.97731
299.97338
299.9705
299.97493
299.97398
299.97201
299.97367
299.96794
299.96611
299.97387
299.97095
299.97126
299.98199
299.99331
299.99919
299.98762
299.99799
299.98808
300.00304
300.01751
300.0319
300.01602
300.02204
300.04251
300.02742
300.01322
300.02151
300.00379
299.99229
299.9951
299.98634
299.99521
299.98935
299.98915
299.98667
299.98661
299.98564
299.98636
299.9899
299.98963
299.99604
300.00661
300.01321
300.03394
300.01916
300.033
300.04669
300.05524
300.04815
300.03961
300.09051
300.11331
300.12264
300.09916
300.06014
300.0502
300.02539
300.0132
300.00704
300.02606
300.04141
300.09221
300.20997
300.33739
300.32252
300.20774
300.34599
300.93038
301.21445
300.35878
300.12413
300.13485
300.102
300.04925
300.01513
300.062
300.05603
300.11067
300.21944
300.35414
300.95424
301.23564
300.37046
300.22677
300.34968
300.33087
300.13368
300.12641
300.10465
300.05021
300.01861
300.06465
300.0585
300.04353
300.11475
300.36577
301.54036
301.52491
300.34667
300.09923
300.03293
300.00947
300.00291
299.99648
299.9955
300.00171
300.00708
300.0001
300.00092
300.00162
299.99644
299.99579
299.99828
299.99935
300.00564
300.00445
300.00292
299.99664
299.99497
299.99397
299.99878
300.0008
299.99509
299.98955
299.99038
299.98966
299.98437
299.98372
299.98241
299.97932
299.97956
299.98241
299.98608
299.99156
299.99205
299.99274
299.9918
299.98497
299.97931
299.97959
299.97532
299.97551
299.97598
299.97989
299.98244
299.98581
299.99097
299.99054
299.98419
299.98384
299.9857
299.98276
299.98055
299.97686
299.9794
299.97909
299.97627
299.97664
299.97718
299.97762
299.97795
299.97799
299.97774
299.97373
299.97399
299.97156
299.97118
299.97573
299.97616
299.97589
299.9751
299.9692
299.96988
299.9698
299.96846
299.97645
299.97795
299.98402
299.98108
299.97637
299.96557
299.96699
299.98255
299.97347
299.97838
299.96653
299.96797
299.99338
300.01861
300.00371
300.019
300.03816
300.05459
300.07163
300.05563
300.10022
300.06867
300.09107
300.12321
300.14256
300.12841
300.06995
300.03512
300.03968
300.01745
300.0278
300.05292
300.08912
300.07893
300.14813
300.15805
300.25228
300.23063
300.19441
300.14045
300.1011
300.06744
300.04486
300.02679
300.01351
300.00439
299.99775
299.98589
299.98381
299.9828
299.98296
299.98364
299.98904
299.98972
299.99062
299.98491
299.98392
299.97919
299.97925
299.97739
299.9722
299.96954
299.97597
299.97638
299.97747
299.98358
299.9909
299.98981
299.99078
299.9926
299.98391
299.98597
299.98481
299.9847
299.98546
299.99136
299.99084
299.99236
299.99252
299.98623
299.98582
299.98037
299.97955
299.98173
299.98158
299.97708
299.97449
299.97175
299.96921
299.9698
299.97195
299.97451
299.97708
299.98308
299.98386
299.98528
299.9858
299.99198
299.99243
299.98991
299.98894
299.99543
299.99672
299.99599
299.99457
299.99633
299.99542
299.99557
299.99612
300.00402
299.99702
300.00282
300.01199
300.00735
300.00045
299.99714
299.99727
300.00293
300.00748
300.00059
299.99994
299.99698
299.99658
300.00341
300.01083
300.00259
300.00676
300.0052
300.00164
299.99633
299.9989
299.99275
299.99327
299.99357
299.99333
299.98552
299.9848
299.97826
299.97776
299.98127
299.97788
299.97339
299.97387
299.96929
299.96994
299.9714
299.9745
299.97075
299.96754
299.96553
299.96462
299.9661
299.97012
299.96891
299.96813
299.96349
299.96459
299.96688
299.97092
299.97422
299.9704
299.97051
299.97426
299.97734
299.98236
299.98305
299.98714
299.99353
299.99392
299.98724
299.98875
299.98825
299.99482
299.99575
299.99973
299.99712
299.99482
299.9926
299.99524
299.99879
299.98876
299.98658
299.97951
299.97817
299.97768
299.9799
299.97132
299.97279
299.97496
299.9758
299.97783
299.97862
299.984
299.98282
299.98149
299.98131
299.98877
299.99222
300.00236
300.00654
299.99581
299.99108
299.98336
299.97592
299.97418
299.97368
299.98283
299.98616
299.97657
299.97942
299.97767
299.97799
299.97687
299.97183
299.97102
299.97457
299.97077
299.97069
299.96666
299.96405
299.96878
299.96749
299.96271
299.95713
299.95814
299.95963
299.96155
299.95634
299.95727
299.95994
299.96448
299.96796
299.96423
299.96317
299.967
299.96312
299.95828
299.95508
299.96062
299.95943
299.96234
299.96668
299.963
299.95742
299.95744
299.96219
299.96702
299.96377
299.96101
299.95948
299.95934
299.96042
299.96716
299.97518
299.97531
299.96527
299.96577
299.96715
299.97622
299.9859
299.98929
300.00261
300.01173
299.9955
299.98999
299.99636
300.00457
300.02476
300.03877
300.02104
300.00886
299.99461
299.98924
299.99377
300.0017
300.01752
300.03392
300.01494
300.0037
300.0169
300.03407
300.05929
300.08183
300.04764
300.02627
300.01065
299.99933
300.00516
300.02023
300.03683
300.06415
300.04609
300.0296
300.05786
300.08667
300.1117
300.13246
300.07577
300.04412
300.02884
300.01042
299.99911
299.99322
299.99019
299.98917
299.99577
299.99717
299.99857
299.99678
299.99012
299.99141
299.98524
299.98409
299.98483
299.9793
299.98006
299.9857
299.98626
299.99073
299.99739
300.00727
300.01706
300.0389
300.03659
300.02331
300.02247
300.00725
300.01692
300.03564
300.06748
300.06985
300.11443
300.1428
300.13592
300.05937
300.05556
300.12348
300.13794
300.11285
300.05843
300.03167
300.01529
300.03309
300.01219
300.00338
300.00565
300.01812
300.01263
300.02435
300.04363
300.08882
300.07719
300.05916
300.0897
300.04342
300.03014
300.01127
300.01542
300.02002
300.02407
300.02759
300.02897
300.02877
300.02668
300.01248
300.00959
300.00176
300.00365
299.99497
300.00168
299.99175
299.98926
299.98533
299.98698
299.97917
299.97899
299.97359
299.97273
299.97565
299.97511
299.97109
299.96737
299.96685
299.96392
299.96865
299.96717
299.96232
299.96223
299.96706
299.96871
299.96411
299.95915
299.95874
299.95879
299.95283
299.95357
299.95185
299.95383
299.94707
299.95039
299.95159
299.95502
299.94976
299.95669
299.95564
299.94733
299.95302
299.94878
299.94159
299.94522
299.94355
299.93911
299.92969
299.93576
299.93821
299.94427
299.95324
299.96423
299.97677
299.98018
299.96453
299.96685
299.96552
299.98025
299.97731
299.98116
299.97853
299.96841
299.96807
299.97255
299.97108
299.98222
299.98713
299.99594
299.98637
299.96935
299.97265
299.9949
299.98566
299.99475
299.98655
300.00659
300.02086
300.03812
300.01881
300.04286
300.07847
300.09837
300.20256
300.16449
300.14188
300.25822
300.13721
300.16119
300.31413
300.50883
300.22525
300.23907
300.26436
300.20962
300.53519
300.57397
300.49229
301.07061
300.46665
300.22539
300.21903
300.35433
300.49401
300.5033
300.21805
300.25976
300.51243
301.83251
301.67687
300.99648
301.67793
301.88553
302.9792
302.69301
302.64556
301.70905
300.52227
300.19999
300.12659
300.06211
300.0322
300.01436
300.00542
300.00339
300.01234
300.02828
300.01612
300.02019
300.05372
300.04502
300.0559
300.11843
300.10519
300.12364
300.08838
300.05261
300.02754
300.01315
300.00387
299.99868
299.99665
299.99066
299.99011
299.99606
299.99785
299.99148
299.99224
299.99624
299.99509
300.00269
300.01129
300.00187
300.00365
299.99495
299.98608
299.98215
299.98103
299.98148
299.98104
299.9861
299.98594
299.98036
299.97935
299.98048
299.98544
299.98937
299.99534
299.99414
299.98828
299.98876
299.99026
299.99671
299.99495
299.9985
300.00105
299.99319
299.99084
299.99512
299.99886
300.00872
300.00451
300.00076
299.99613
299.99336
299.99314
300.00024
300.00963
300.02562
300.00584
299.99727
300.00302
300.00939
300.02274
300.01465
300.03008
300.04531
300.07432
300.09268
300.0685
300.02967
300.01563
300.03831
300.05815
300.0353
300.01829
300.00853
300.00265
299.99907
299.99766
299.99449
299.99552
299.99087
299.98955
299.98526
299.987
299.98906
299.99014
299.9938
299.99519
299.99846
300.00005
300.00323
299.99682
299.99455
299.99291
299.99329
299.99388
299.99336
299.99825
300.00082
299.99669
299.99416
299.99502
299.99801
299.99581
300.00476
300.01364
300.00591
300.0011
300.01401
300.03484
300.0098
299.99874
300.00476
300.01662
300.00466
300.01832
300.00872
300.00485
299.99588
299.99434
300.00107
300.00305
299.99531
299.99811
299.99009
299.98831
299.98716
299.98887
299.98995
299.98913
299.9901
299.98585
299.98637
299.98843
299.99021
299.98959
299.98474
299.98413
299.98033
299.98325
299.98129
299.98237
299.98348
299.98411
299.98167
299.97962
299.97817
299.97414
299.97318
299.97228
299.97179
299.97141
299.97135
299.97138
299.97149
299.97153
299.97146
299.97127
299.97101
299.96954
299.9694
299.96512
299.96673
299.96719
299.96538
299.96575
299.96973
299.96994
299.96603
299.96798
299.96768
299.96427
299.96336
299.96249
299.96026
299.96077
299.95552
299.95458
299.95793
299.9595
299.96118
299.95667
299.96142
299.96183
299.96471
299.96179
299.95725
299.95267
299.95169
299.94949
299.94777
299.95299
299.95579
299.95194
299.94722
299.93898
299.94187
299.94633
299.95845
299.95904
299.97005
299.9726
299.98174
299.97596
299.99152
300.00657
300.01228
300.02672
300.00646
300.00615
300.01716
300.01429
300.02479
300.04788
300.0345
300.0393
300.02631
300.01179
299.99473
299.99133
299.98414
299.98102
299.98797
299.99305
299.99005
299.98614
299.9848
299.98344
299.9845
299.9797
299.97819
299.97737
299.97931
299.98124
299.97793
299.98643
299.98394
299.98185
299.98215
299.98374
299.98732
299.98642
299.99193
299.99167
299.9859
299.98722
299.98843
299.98633
299.99363
299.9967
299.98796
299.99128
299.98299
299.975
299.97563
299.97716
299.97912
299.97867
299.98297
299.9811
299.97645
299.97617
299.9785
299.98268
299.98577
299.99113
299.9904
299.98551
299.98443
299.98491
299.9904
299.98954
299.99033
299.9917
299.98476
299.98385
299.98383
299.9854
299.99368
299.99139
299.99449
299.99811
300.00273
300.00882
300.01459
300.02093
300.00941
300.00328
300.01618
300.02634
300.04147
300.03061
300.05342
300.07045
300.08072
300.06918
300.078
300.14369
300.15462
300.14003
300.12603
300.10852
300.05231
300.02073
300.00297
299.99796
299.98634
299.98066
299.99189
300.00166
300.01204
299.99664
300.00551
300.03247
300.0451
300.04612
300.03346
300.01672
299.99879
300.01611
300.04372
300.0777
300.03723
300.05299
300.06407
300.13784
300.11033
300.08642
300.05003
300.01758
299.99461
299.97119
299.95854
299.95809
299.9439
299.92343
299.93537
299.93444
299.93612
299.92638
299.93151
299.92278
299.93061
299.93879
299.95047
299.94952
299.95228
299.94126
299.93483
299.92407
299.93341
299.92987
299.93901
299.94685
299.95209
299.94631
299.95625
299.95895
299.94712
299.95242
299.94594
299.94239
299.94436
299.93527
299.93225
299.93783
299.92818
299.94155
299.94007
299.95357
299.95151
299.9331
299.93516
299.95833
299.95807
299.97664
299.9839
300.00968
300.0317
300.00934
299.99517
299.98708
299.97511
299.97936
299.98814
299.98009
299.99262
300.00461
300.02611
300.00435
299.98822
300.00303
300.03284
300.062
300.09321
300.04222
300.01337
299.99775
299.98496
299.99683
300.00343
299.98878
299.98174
299.97234
299.97024
299.96776
299.96545
299.96795
299.96265
299.95836
299.95999
299.96355
299.96929
299.97077
299.9647
299.96804
299.97147
299.97196
299.97626
299.97671
299.97878
299.98173
299.98148
299.97781
299.97348
299.96894
299.96712
299.96239
299.96452
299.96499
299.96928
299.9673
299.96267
299.95734
299.9569
299.95658
299.95663
299.94982
299.95048
299.95095
299.95266
299.95481
299.95736
299.96021
299.9631
299.96964
299.97841
299.98209
299.9861
299.98791
299.992
299.99326
299.99495
299.99336
299.99081
299.99171
299.98972
299.9858
299.98731
299.98508
299.98185
299.98092
299.98337
299.98552
299.98334
299.98178
299.97953
299.97789
299.97621
299.97955
299.98061
299.97805
299.98137
299.982
299.98567
299.98584
299.98553
299.98254
299.98201
299.98462
299.98792
299.99069
299.9879
299.9882
299.98914
299.99096
299.99126
299.98858
299.98765
299.98982
299.99127
299.98842
299.98925
299.98785
299.99035
299.99231
299.99416
299.99272
299.99095
299.99059
299.99197
299.99378
299.99268
299.99165
299.99229
299.99068
299.99331
299.99568
299.99366
299.99087
299.9881
299.98542
299.98566
299.9855
299.98481
299.98629
299.98426
299.98536
299.98765
299.98623
299.98399
299.98141
299.98238
299.98148
299.98028
299.97697
299.97836
299.98011
299.97895
299.98237
299.98348
299.98396
299.98648
299.98648
299.9865
299.9863
299.9826
299.98179
299.97804
299.97526
299.97392
299.9748
299.97349
299.97245
299.96918
299.97079
299.9721
299.97059
299.97292
299.9751
299.97617
299.9785
299.97771
299.97603
299.9769
299.97397
299.97198
299.97479
299.96993
299.96783
299.96947
299.9674
299.96548
299.96116
299.96371
299.96613
299.96373
299.96764
299.97045
299.97439
299.97553
299.97386
299.96916
299.96678
299.97143
299.97443
299.97752
299.97485
299.97324
299.97406
299.97137
299.9701
299.96825
299.97156
299.97253
299.9696
299.97185
299.97318
299.97538
299.97762
299.97603
299.97487
299.97658
299.97406
299.97316
299.97677
299.97979
299.98198
299.97859
299.97459
299.97337
299.97764
299.97898
299.97574
299.98024
299.98075
299.97853
299.97895
299.9796
299.98125
299.9803
299.98789
299.98603
299.98527
299.98222
299.98245
299.98218
299.98194
299.97821
299.97869
299.97806
299.9747
299.97123
299.96875
299.96717
299.96452
299.96639
299.96274
299.96548
299.96849
299.97311
299.97148
299.97321
299.96937
299.96659
299.96366
299.96624
299.96245
299.96467
299.95998
299.96299
299.95966
299.95632
299.95067
299.95479
299.95873
299.95498
299.9612
299.96462
299.97085
299.97263
299.97799
299.9787
299.97944
299.98014
299.98049
299.98338
299.98341
299.98321
299.98316
299.97959
299.97892
299.98067
299.98829
299.98685
299.98572
299.98871
299.98938
299.98612
299.98688
299.98619
299.98968
299.99051
299.99216
299.99096
299.98691
299.98315
299.98334
299.98369
299.98337
299.97795
299.97744
299.98023
299.99011
299.98898
299.98778
299.99275
299.99425
299.98912
299.98785
299.98891
299.98763
299.98661
299.98718
299.9867
299.98577
299.98875
299.99126
299.99199
299.98941
299.98879
299.98821
299.98881
299.9903
299.99105
299.98869
299.99014
299.98897
299.99173
299.99303
299.99032
299.99061
299.99407
299.99448
299.99301
299.99062
299.99165
299.99425
299.99637
299.9949
299.99215
299.99358
299.99584
299.99392
299.9937
299.99841
299.99918
299.99673
299.99852
299.99609
299.9976
299.99588
299.99852
300.00027
300.00351
300.00115
300.00456
300.00232
299.9999
299.99702
299.99907
300.00231
299.99858
299.99619
299.99868
299.99761
299.99337
299.99012
299.99369
299.99816
299.99859
299.99608
299.9938
299.99225
299.98978
299.98781
299.98878
299.98929
299.9882
299.98489
299.98562
299.98657
299.98204
299.98224
299.98255
299.97718
299.97676
299.97745
299.97691
299.9777
299.97394
299.97589
299.97516
299.97211
299.9703
299.97145
299.97038
299.96654
299.96806
299.96668
299.96503
299.96908
299.96825
299.96951
299.96554
299.96382
299.9629
299.96744
299.96874
299.96461
299.96766
299.96847
299.96943
299.97058
299.96776
299.96439
299.96226
299.96031
299.96261
299.95793
299.96022
299.96464
299.9702
299.97209
299.97113
299.97311
299.97243
299.97464
299.97142
299.9707
299.97413
299.97185
299.96963
299.97032
299.96511
299.96633
299.96289
299.96909
299.96815
299.96131
299.9559
299.9611
299.95871
299.95748
299.95986
299.95414
299.95991
299.96407
299.96323
299.96704
299.97024
299.97504
299.97847
299.98091
299.9839
299.98109
299.98145
299.98537
299.98588
299.98602
299.9853
299.98516
299.98074
299.97808
299.97684
299.97714
299.97265
299.97238
299.97461
299.97946
299.97984
299.9771
299.97733
299.9777
299.97801
299.98196
299.98206
299.98186
299.98183
299.97725
299.97648
299.9822
299.98207
299.98264
299.98242
299.98787
299.98698
299.99197
299.9901
299.99093
299.99306
299.99573
299.994
299.98833
299.98311
299.97681
299.97177
299.9701
299.96308
299.9584
299.95448
299.95948
299.95543
299.95874
299.95423
299.94993
299.94389
299.94989
299.95449
299.94972
299.94434
299.93721
299.94389
299.94926
299.95713
299.96054
299.96342
299.97048
299.97238
299.96898
299.96713
299.96868
299.9666
299.96812
299.96979
299.97632
299.98318
299.98437
299.98396
299.97626
299.97609
299.97636
299.97641
299.97667
299.98438
299.98379
299.98436
299.97745
299.97702
299.98534
299.99294
299.99082
299.99683
299.99464
299.99716
299.99049
299.99241
299.99009
299.99676
299.99904
299.99199
299.98967
299.99109
299.9888
299.98715
299.98596
299.98506
299.98864
299.99
299.99078
299.98919
299.98523
299.98635
299.98782
299.99314
299.99199
299.99457
299.99624
299.98989
299.983
299.9759
299.97626
299.9759
299.96833
299.96126
299.95552
299.95174
299.94525
299.95017
299.94618
299.9525
299.94836
299.9407
299.93157
299.9378
299.94413
299.93745
299.92929
299.92693
299.91847
299.91009
299.92412
299.91938
299.90216
299.91597
299.91883
299.90575
299.9137
299.92841
299.93385
299.9491
299.96707
299.97297
299.99693
300.00872
299.97835
299.97072
299.97896
300.00817
300.03686
300.06316
300.09719
300.06819
300.09988
300.06675
300.04179
300.07174
300.10863
300.1495
300.20587
300.13956
300.10175
300.06345
300.10044
300.06297
300.09308
300.14172
300.20008
300.15231
300.2226
300.15768
300.10167
300.06705
300.03984
300.01348
299.98453
300.00561
300.02086
299.99287
300.03075
300.05568
300.02724
299.98917
300.01156
299.99552
300.03035
300.05831
300.09614
300.03325
300.00651
300.03921
300.06609
300.15012
300.24763
300.18368
300.12799
300.08049
300.11507
300.17337
300.27084
300.17385
300.21123
300.30586
300.35945
300.36243
300.23236
300.27342
300.36192
300.31567
300.38605
300.52944
300.43804
300.29379
300.24934
300.4013
300.54554
300.33948
300.41276
300.29036
300.40268
300.27993
300.19748
300.12881
300.10176
300.15899
300.24566
300.15409
300.17779
300.28224
300.40802
300.37134
300.23586
300.32976
300.51015
300.59974
300.78327
300.49536
300.33888
300.21482
300.21117
300.11462
300.06121
300.0718
300.03505
300.01435
300.00167
300.01983
300.05389
300.03404
300.02124
300.06692
300.09264
300.11635
300.13408
300.15103
300.08602
300.0508
300.05372
300.03801
300.01647
300.00324
299.99615
299.99229
299.99942
299.99994
299.99783
299.99116
299.99276
299.98652
299.98605
299.97974
299.98056
299.98098
299.98669
299.98686
299.98586
299.98641
299.98615
299.99264
299.99252
299.99
299.98344
299.98278
299.97791
299.9738
299.97419
299.97821
299.98206
299.97921
299.97951
299.9823
299.98649
299.98588
299.9859
299.98657
299.99221
299.99188
299.9898
299.99014
299.98427
299.98315
299.98272
299.9793
299.97861
299.97492
299.97587
299.98005
299.98085
299.98607
299.98665
299.98685
299.98921
299.99166
299.99494
299.99565
299.99557
300.00178
300.00705
300.00054
300.00348
299.99766
299.99676
299.99671
299.99939
300.00222
300.00627
300.00887
300.02064
300.01786
300.00701
300.00089
299.99916
300.00108
300.01272
300.00347
300.0092
300.01777
300.03078
300.04664
300.05213
300.03451
300.01866
300.03155
300.02013
300.01324
300.02161
300.01078
300.00398
299.99562
299.99966
299.99438
299.98999
299.98825
299.98589
299.98237
299.98378
299.98099
299.98002
299.9771
299.97828
299.98193
299.98621
299.99229
299.99225
299.9951
299.99563
299.99628
299.99682
299.9974
299.99777
299.99795
299.9913
299.99283
299.99996
299.99955
299.99257
299.9912
299.98685
299.98127
299.98118
299.98037
299.98019
299.9806
299.98016
299.98808
299.9932
299.98307
299.98331
299.99352
299.98853
299.99663
300.00532
300.00479
300.01399
300.01446
300.00363
300.00294
299.99647
300.00518
300.01386
300.01195
300.0043
299.99576
300.00139
299.99154
299.99288
299.98844
299.98664
299.9865
299.98036
299.98024
299.98057
299.98276
299.98171
299.97263
299.9733
299.97371
299.97351
299.97296
299.97207
299.96576
299.96872
299.96928
299.97232
299.97268
299.97712
299.97468
299.97424
299.96968
299.96582
299.96542
299.96957
299.96749
299.96298
299.9633
299.96773
299.96991
299.97016
299.97292
299.97736
299.97491
299.96995