/*--------------------------------*- C++ -*----------------------------------*\
  =========                 |
  \\      /  F ield         | OpenFOAM: The Open Source CFD Toolbox
   \\    /   O peration     | Website:  https://openfoam.org
    \\  /    A nd           | Version:  7
     \\/     M anipulation  |
\*---------------------------------------------------------------------------*/
FoamFile
{
    version     2.0;
    format      ascii;
    class       volScalarField;
    location    "380";
    object      T;
}
// * * * * * * * * * * * * * * * * * * * * * * * * * * * * * * * * * * * * * //

dimensions      [0 0 0 1 0 0 0];

internalField   nonuniform List<scalar> 
25278
(
299.99805
300.00046
299.99965
299.99955
300.00343
300.00016
299.99872
299.99796
299.99899
300.00031
300.00016
299.99922
300.00004
300.00136
300.01742
299.99965
300.00051
300.01136
300.01871
300.00634
300.00253
300.00214
300.00195
300.00032
299.99804
300.00018
300.00183
300.00146
300.00348
299.99951
299.99894
300.00457
300.00748
300.00469
299.99792
300.00015
299.99617
299.9965
300.00116
300.00312
300.00134
299.99611
299.99723
299.99076
299.99228
299.99447
299.99965
299.99863
299.99362
299.99955
300.00044
300.00787
300.01612
300.01213
300.00249
299.99727
299.99849
300.00424
300.0086
300.00558
299.99912
300.00135
300.00362
299.99953
300.00552
300.00647
300.00031
300.00497
300.0127
300.01102
300.02067
300.01636
300.01138
300.00719
300.00381
299.99851
299.99768
299.99926
300.00184
300.00554
300.00846
300.01709
300.01091
300.01761
300.00703
300.01106
300.02572
300.05953
300.04543
300.03047
300.02654
300.04126
300.04551
300.07049
300.06507
300.0409
300.03514
300.02221
300.0164
300.02885
300.03571
300.05851
300.04998
300.02803
300.04157
300.04884
300.05473
300.10105
300.1059
300.13419
300.07123
300.06625
300.12851
300.12395
300.09532
300.08612
300.11891
300.05332
300.06002
300.0623
300.01895
300.00724
300.00342
300.05138
300.07755
300.11331
300.13819
300.07304
300.02713
300.01144
300.00902
300.00572
300.01248
300.01922
300.05035
300.06403
300.05969
300.06826
300.13346
300.10963
300.10513
300.1301
300.12643
300.056
300.04713
300.05398
300.04048
300.04618
300.07286
300.04747
300.02032
300.03466
300.03077
300.02619
300.01349
300.02013
300.03347
300.05928
300.09732
300.21239
300.35262
300.32968
300.19232
300.08751
300.04331
300.04969
300.06002
300.05501
300.11964
300.12157
300.09559
300.19857
300.31538
300.32991
301.32216
301.09032
300.32274
300.34068
301.10791
301.34327
300.34408
300.32567
300.21451
300.10695
300.06709
300.04199
300.03527
300.05162
300.10057
300.13046
300.13048
300.06733
300.02231
300.05739
300.06301
300.04976
300.12413
300.35656
301.60126
301.57661
300.33648
300.11097
300.04124
300.03007
300.0175
300.00864
300.00444
300.00322
300.00401
299.99842
299.99959
300.00664
300.0007
299.99553
299.99566
299.99571
300.00028
300.00201
299.99627
299.98995
299.99062
299.99182
299.99657
299.99929
299.9954
299.9886
299.98703
299.99155
299.99397
299.99239
299.98899
299.98558
299.98394
299.98732
299.99159
299.99146
299.99284
299.99787
300.00193
300.0055
299.99872
300.00134
300.01063
300.00402
299.99767
299.9962
299.99708
300.00275
300.00648
299.99939
300.00128
299.9979
299.99934
300.00685
300.01425
300.00386
300.00861
300.01024
300.00477
299.99859
300.00253
299.99353
299.99259
299.99132
299.99035
299.98311
299.98643
299.98592
299.99178
299.9922
299.99238
299.98735
299.9891
299.98308
299.98462
299.98322
299.98624
299.98064
299.9823
299.97936
299.97687
299.97374
299.98109
299.97912
299.98188
299.97605
299.97729
299.97501
299.9759
299.97733
299.97774
299.98083
299.98881
299.99569
299.99682
299.99201
299.99285
299.98941
299.98793
299.9846
299.98598
299.9911
299.99006
299.98771
299.98294
299.98438
299.98792
299.99215
299.99926
299.99694
299.99931
300.00809
300.01345
300.0031
300.0099
300.00293
299.99884
299.99634
300.00317
300.01661
300.00761
300.01209
300.0059
299.99809
300.00183
300.00888
300.02133
300.01329
300.03638
300.02239
300.03585
300.01972
300.00058
299.99803
299.99573
299.9941
299.99294
299.99226
299.98741
299.98794
299.98814
299.99278
299.99306
299.9942
299.98814
299.98726
299.98985
299.97973
299.98222
299.98311
299.97869
299.98067
299.97994
299.98415
299.98295
299.97816
299.97649
299.97698
299.9752
299.98152
299.98753
299.9888
299.99577
299.99827
299.99006
299.98815
299.99083
299.98946
299.98957
299.98257
299.97945
299.98148
299.98239
299.98369
299.98715
299.99128
299.99133
299.98657
299.98677
299.98709
299.9916
299.99174
299.99278
299.99198
299.9864
299.9867
299.99317
299.99429
299.98747
299.98687
299.9811
299.98193
299.98322
299.97915
299.98009
299.97807
299.97731
299.97558
299.97636
299.97461
299.9808
299.98063
299.97399
299.96785
299.96953
299.97198
299.9672
299.97493
299.97309
299.97474
299.97141
299.97463
299.97315
299.96956
299.97287
299.97085
299.96954
299.97212
299.9679
299.96927
299.96688
299.96519
299.96057
299.96387
299.96563
299.96831
299.97223
299.97051
299.96612
299.96247
299.96471
299.96129
299.95903
299.95552
299.95827
299.96274
299.9604
299.96487
299.96921
299.97158
299.96805
299.97214
299.97686
299.97865
299.98314
299.98738
299.99231
300.00083
300.0094
300.02778
300.018
300.00689
300.01304
300.0041
300.01354
300.02581
300.04532
300.03152
300.06886
300.05352
300.03582
300.01819
300.03011
300.05849
300.08163
300.11511
300.06024
300.03313
300.01742
300.03838
300.02021
300.0102
300.00778
300.0203
300.02513
300.03881
300.07136
300.10745
300.14372
300.12455
300.09524
300.04602
300.05705
300.02839
300.0241
300.0185
300.01269
300.0075
300.00327
299.99976
299.99683
299.99493
299.98743
299.98892
299.99754
300.00002
299.99066
299.98875
299.98063
299.98058
299.9775
299.9812
299.97381
299.97362
299.97495
299.98179
299.9822
299.98297
299.98338
299.98433
299.98412
299.98726
299.9924
299.99304
299.98702
299.98445
299.99307
299.9916
299.9938
300.0028
300.00692
300.01695
300.0094
300.0204
300.02958
300.03762
300.02533
300.01127
300.01381
300.02348
300.04332
300.03037
300.06425
300.05288
300.03503
300.02096
300.03401
300.07133
300.04977
300.08651
300.05528
300.038
300.06382
300.10439
300.12268
300.0659
300.07685
300.14972
300.13452
300.0865
300.0562
300.03583
300.02224
300.01283
300.00651
300.0024
299.99582
299.99423
299.99348
299.98865
299.98997
299.99211
299.98746
299.98672
299.98388
299.98522
299.97993
299.98268
299.98105
299.97747
299.97457
299.98195
299.98387
299.98292
299.98025
299.97252
299.97721
299.97812
299.97588
299.97659
299.97785
299.97804
299.97524
299.97356
299.97522
299.97349
299.97017
299.97186
299.97515
299.97386
299.97125
299.97272
299.97217
299.96738
299.966
299.96969
299.96835
299.97262
299.97016
299.97144
299.96743
299.96575
299.96107
299.96425
299.95933
299.96159
299.96508
299.96872
299.96672
299.96305
299.96861
299.96999
299.96765
299.96695
299.95988
299.95759
299.96179
299.95922
299.96597
299.96323
299.96488
299.97247
299.9811
299.9894
299.99178
300.00124
300.00517
299.99426
299.99086
299.99355
300.00438
300.01018
299.99763
299.98449
299.98296
299.98211
299.98177
299.98346
299.98296
299.99082
299.9896
299.98893
299.98872
299.98972
299.9952
299.99637
299.99453
299.99624
299.99871
299.99153
299.99028
299.98425
299.98492
299.9797
299.97966
299.97802
299.9783
299.97901
299.98002
299.98567
299.99081
299.99659
299.99838
299.99226
299.99393
299.992
299.99839
300.00078
300.00473
300.0015
299.99397
299.99672
300.00075
299.99686
299.99347
300.00191
299.99851
300.00197
299.99284
299.99645
300.0065
300.01207
300.00604
299.99545
300.00021
299.98788
299.98608
299.98485
299.98428
299.97712
299.97653
299.97523
299.9762
299.97796
299.97828
299.98613
299.98549
299.98704
299.9868
299.98068
299.98005
299.97992
299.9884
299.99079
299.9875
299.98979
300.00116
300.01175
300.00573
300.01035
300.01491
300.00794
300.00302
299.99992
299.99474
299.99369
299.98713
299.98734
299.98593
299.98527
299.97703
299.9825
299.97934
299.97888
299.98238
299.97716
299.971
299.9714
299.9665
299.96687
299.96759
299.96853
299.96993
299.97234
299.97137
299.97546
299.97279
299.9731
299.96885
299.96791
299.96408
299.96558
299.96348
299.96833
299.96651
299.9615
299.9599
299.96521
299.96406
299.95867
299.96227
299.96298
299.9674
299.97083
299.97537
299.97561
299.97053
299.96727
299.97339
299.9729
299.9707
299.97032
299.97051
299.96524
299.96426
299.96031
299.9614
299.96789
299.96786
299.96859
299.95993
299.96381
299.96389
299.97161
299.97008
299.98043
299.98348
299.98191
299.98131
299.98138
299.98782
299.99356
299.99489
300.00146
300.00514
299.99777
299.99598
299.98872
299.99029
299.98896
299.98221
299.98255
299.98355
299.98277
299.98968
299.99574
299.99627
300.003
300.00735
299.99984
299.99912
299.99149
299.99214
299.99016
299.98315
299.9841
299.98636
299.98548
299.98387
299.99328
299.99092
299.99971
300.00233
300.01083
300.01931
300.00896
300.00506
299.99453
299.99813
299.98659
299.98923
300.00102
299.99512
300.00436
300.00543
300.014
300.0241
300.01368
300.01202
300.02405
300.01915
300.01314
300.0067
300.01813
300.02841
300.01919
300.00659
300.01443
299.99969
299.99452
299.98172
299.97809
299.97557
299.97414
299.97321
299.97243
299.97152
299.97147
299.97213
299.9733
299.97267
299.97159
299.98111
299.98069
299.98142
299.98231
299.97097
299.97101
299.95783
299.96051
299.96259
299.96462
299.96725
299.96149
299.95767
299.95455
299.95867
299.96523
299.96259
299.96008
299.95025
299.95425
299.95786
299.95502
299.94845
299.95387
299.95873
299.96325
299.96109
299.95837
299.95603
299.95937
299.95414
299.9562
299.95274
299.95595
299.9504
299.95476
299.94907
299.95255
299.94793
299.95241
299.95736
299.95453
299.94895
299.94388
299.95004
299.95347
299.94812
299.94231
299.93706
299.94364
299.93722
299.94415
299.93917
299.94643
299.95076
299.95723
299.96522
299.96532
299.95593
299.95085
299.95256
299.96238
299.96254
299.97513
299.9786
299.99294
299.99731
299.99048
299.98594
299.98438
299.99905
300.01139
300.01926
300.00533
300.01178
300.00372
300.01816
300.02845
300.04147
300.02886
300.014
300.02529
300.04171
300.06053
300.0395
300.02337
300.00298
299.994
299.98825
299.97219
299.97253
299.97496
299.97505
299.98084
299.97954
299.98688
299.9838
299.96739
299.96874
299.96646
299.95555
299.95624
299.96028
299.95189
299.95739
299.95812
299.95411
299.95267
299.94572
299.94751
299.94989
299.94281
299.94817
299.9411
299.94454
299.93739
299.94251
299.95055
299.94578
299.93592
299.9294
299.92087
299.93074
299.92421
299.9344
299.93011
299.93969
299.94629
299.95267
299.94536
299.93734
299.92679
299.93718
299.9385
299.95031
299.96411
299.96135
299.95942
299.95938
299.94732
299.94486
299.93766
299.94142
299.95622
299.95584
299.95785
299.93552
299.94385
299.94504
299.95133
299.95446
299.95817
299.96139
299.96446
299.96749
299.9705
299.97597
299.97652
299.97065
299.96789
299.97501
299.97415
299.97294
299.9744
299.96528
299.96289
299.97469
299.97226
299.97222
299.98639
300.00012
300.00578
299.99141
299.99929
299.99095
300.00815
300.024
300.03834
300.02488
300.0313
300.04887
300.03358
300.01738
300.02554
300.01049
299.99588
299.99852
299.99069
300.00262
299.99612
299.99605
299.99211
299.99015
299.98598
299.9874
299.99357
299.99871
300.00261
300.0116
300.0188
300.03565
300.02255
300.03594
300.05009
300.05988
300.05498
300.04375
300.08868
300.11943
300.121
300.09656
300.05896
300.05053
300.02916
300.01683
300.01138
300.02863
300.04222
300.08674
300.1935
300.32579
300.31181
300.19918
300.32323
301.06048
301.28738
300.33096
300.11874
300.12325
300.09543
300.04928
300.01835
300.06032
300.057
300.10536
300.20875
300.32823
301.08688
301.30534
300.33782
300.20695
300.33916
300.32124
300.12945
300.12963
300.09922
300.05133
300.02239
300.06715
300.06291
300.04963
300.12302
300.3519
301.54891
301.53916
300.33246
300.11177
300.04158
300.01623
300.00792
300.00051
299.99976
300.00652
300.01236
300.0044
300.00566
300.00652
300.00035
299.99966
300.00373
300.00501
300.01276
300.0112
300.00876
300.00151
299.99868
299.99756
300.00273
300.00582
299.99939
299.99198
299.99278
299.99392
299.99031
299.98877
299.98246
299.97899
299.9797
299.98279
299.98735
299.99384
299.99428
299.99586
299.99484
299.98545
299.97737
299.97727
299.97118
299.9719
299.97328
299.98077
299.98337
299.98738
299.99329
299.99328
299.98482
299.98468
299.98775
299.98445
299.98257
299.97545
299.97888
299.97778
299.97606
299.97628
299.97668
299.97699
299.97722
299.9772
299.97691
299.97082
299.97097
299.96858
299.96832
299.97577
299.97619
299.9764
299.9757
299.96612
299.96655
299.96522
299.96449
299.97695
299.97817
299.98266
299.98034
299.97627
299.96082
299.95896
299.97968
299.97284
299.97423
299.96584
299.96364
299.991
300.01664
300.00694
300.02003
300.04017
300.05689
300.07372
300.05661
300.09265
300.06285
300.08447
300.11663
300.14298
300.12469
300.07201
300.04178
300.04676
300.02683
300.03869
300.06147
300.09604
300.08227
300.14973
300.1668
300.292
300.24083
300.18073
300.12332
300.08494
300.0581
300.04064
300.02737
300.01707
300.00959
300.00392
299.9934
299.99075
299.98885
299.98781
299.98736
299.99281
299.99411
299.9933
299.98799
299.98825
299.98244
299.982
299.9814
299.97522
299.97376
299.98122
299.98237
299.98214
299.98913
299.99611
299.9943
299.99639
299.99894
299.99073
299.99322
299.99088
299.98945
299.98873
299.99433
299.99564
299.99748
299.9957
299.98977
299.99086
299.98425
299.98321
299.98381
299.98338
299.97839
299.97677
299.9753
299.97407
299.97501
299.97587
299.97704
299.97842
299.98302
299.98346
299.98579
299.98582
299.99262
299.99271
299.99233
299.99765
299.99999
299.99928
299.99772
299.99856
300.00095
300.00145
300.00162
300.00189
300.00711
299.99942
300.00499
300.01514
300.01067
300.00289
299.99873
299.99837
300.00457
300.00993
300.00225
300.0008
299.99772
299.99891
300.00614
300.01258
300.00374
300.00835
300.00614
300.00247
299.99688
299.99921
299.99131
299.99228
299.99328
299.99377
299.98404
299.98392
299.97541
299.97554
299.98122
299.97794
299.96992
299.97139
299.96652
299.96764
299.97041
299.97434
299.97152
299.96687
299.96318
299.96063
299.96277
299.96758
299.9656
299.96413
299.95881
299.96184
299.96606
299.96966
299.974
299.97126
299.97134
299.97393
299.97873
299.98454
299.98526
299.99076
299.99696
299.99931
299.99244
299.99387
299.99181
299.99824
300.00106
300.00587
300.00344
300.00079
299.99827
300.00194
300.00562
299.99619
299.99294
299.98491
299.98334
299.98415
299.98648
299.97653
299.97683
299.97761
299.97841
299.97913
299.97967
299.98612
299.98664
299.98545
299.98675
299.99528
299.99963
300.00945
300.01319
300.00284
299.9974
299.98857
299.97953
299.97813
299.97859
299.98928
299.99211
299.98086
299.98295
299.98078
299.98003
299.97927
299.97218
299.97168
299.97402
299.96883
299.9691
299.96559
299.96085
299.96558
299.96276
299.95733
299.95121
299.953
299.95518
299.95772
299.95214
299.95552
299.96051
299.9644
299.96945
299.96673
299.96615
299.96885
299.9631
299.95901
299.95315
299.95843
299.95687
299.96224
299.96871
299.96616
299.95804
299.95766
299.96183
299.96902
299.96677
299.96453
299.96351
299.96336
299.96398
299.97257
299.98159
299.98253
299.97162
299.97249
299.97314
299.98328
299.9934
299.997
300.00871
300.01601
300.00218
299.99728
300.00259
300.00906
300.02571
300.03687
300.02409
300.01457
300.00196
299.99696
300.00132
300.0083
300.02228
300.0351
300.01854
300.00913
300.01856
300.03227
300.05349
300.07507
300.04866
300.031
300.01641
300.0066
300.01173
300.02483
300.0404
300.06395
300.04638
300.03154
300.05301
300.07985
300.10418
300.1291
300.0762
300.04738
300.03239
300.01616
300.00556
299.99918
299.99505
299.99254
299.9991
300.00233
300.00324
299.99977
299.99311
299.99581
299.9883
299.98764
299.98671
299.98008
299.98042
299.9872
299.98734
299.99329
300.00001
300.0109
300.021
300.041
300.04022
300.02645
300.02389
300.0097
300.01972
300.03738
300.06774
300.07403
300.11625
300.15051
300.13076
300.05965
300.05285
300.10919
300.13083
300.09946
300.05512
300.03166
300.0168
300.0329
300.01305
300.00387
300.00688
300.01821
300.01245
300.02433
300.04154
300.08158
300.06964
300.05173
300.07562
300.03955
300.02784
300.01087
300.01497
300.01949
300.0242
300.02826
300.03092
300.03206
300.03124
300.01783
300.01592
300.00773
300.00897
300.0003
300.00725
299.99614
299.99456
299.99011
299.99112
299.98163
299.98055
299.97304
299.97268
299.97453
299.9743
299.96874
299.96552
299.96545
299.96021
299.96498
299.96183
299.95622
299.95545
299.96107
299.96459
299.95986
299.95478
299.95506
299.95574
299.94987
299.95124
299.94632
299.94904
299.94195
299.94588
299.95009
299.95631
299.95165
299.96113
299.96038
299.94926
299.95446
299.9471
299.93998
299.94391
299.93868
299.93354
299.9234
299.93035
299.93686
299.94653
299.95827
299.97113
299.98432
299.9872
299.97126
299.97266
299.97229
299.9875
299.98488
299.98851
299.98586
299.97457
299.97454
299.97804
299.9769
299.98932
299.99363
300.00019
299.99257
299.97512
299.97634
299.99822
299.99137
299.99727
299.99189
300.01039
300.02073
300.03188
300.01899
300.03882
300.06638
300.08493
300.16822
300.14
300.11501
300.19007
300.11061
300.1357
300.24541
300.43511
300.2226
300.21977
300.30632
300.25555
300.55581
300.61428
300.39253
300.82338
300.3739
300.20551
300.2106
300.32522
300.41666
300.49273
300.25427
300.2959
300.54277
301.67554
301.56158
300.8247
301.63631
301.79874
303.09793
302.80955
302.72369
301.61309
300.51936
300.2389
300.14828
300.07718
300.04353
300.02358
300.01388
300.01138
300.02093
300.03825
300.02558
300.03055
300.06478
300.05371
300.06723
300.12533
300.1063
300.13426
300.09622
300.06175
300.03883
300.02415
300.01402
300.00736
300.00301
299.99627
299.99574
300.00243
300.00654
299.99908
299.99983
300.0054
300.00426
300.01287
300.02237
300.0119
300.01365
300.0025
299.9905
299.98626
299.98407
299.98315
299.9828
299.98968
299.99141
299.98348
299.9825
299.98229
299.98898
299.9949
300.00149
299.99998
299.99362
299.99595
299.99771
300.00513
300.00305
300.00791
300.01082
300.00218
299.99957
300.00481
300.00874
300.01935
300.01491
300.01033
300.00472
300.00083
299.99847
300.00703
300.01651
300.03041
300.01159
300.00302
300.00959
300.01708
300.02994
300.0207
300.03448
300.05057
300.07252
300.0886
300.06524
300.03546
300.02121
300.0386
300.0564
300.0367
300.02292
300.01387
300.00754
300.00347
300.00149
299.99925
300.00231
299.99978
299.99485
299.9925
299.99598
299.99826
299.99717
299.99984
300.00177
300.00376
300.00482
300.00782
300.00056
299.99843
299.99663
299.99688
299.99764
299.99663
300.00179
300.0043
299.99918
299.99752
299.99968
300.00354
299.99995
300.00865
300.01793
300.00914
300.00509
300.01728
300.03712
300.01395
300.00367
300.01038
300.02033
300.00971
300.02213
300.01297
300.00835
299.9997
299.99724
300.00395
300.00681
299.99911
300.00282
299.99433
299.99054
299.98858
299.99077
299.99271
299.99129
299.99274
299.9885
299.99001
299.99262
299.99337
299.99173
299.98674
299.9853
299.98077
299.98585
299.98452
299.98731
299.9894
299.98808
299.98351
299.98187
299.97837
299.97255
299.97102
299.96957
299.96854
299.96768
299.96714
299.96678
299.96658
299.96645
299.96637
299.96631
299.96634
299.96284
299.96334
299.95785
299.96193
299.96188
299.95739
299.95721
299.96263
299.96259
299.95722
299.96208
299.96198
299.95764
299.95731
299.95716
299.95174
299.95132
299.94433
299.94466
299.95183
299.95233
299.95309
299.94447
299.95124
299.95133
299.95781
299.95331
299.94471
299.9374
299.93663
299.93595
299.93602
299.94557
299.94668
299.93968
299.93766
299.92496
299.92547
299.92733
299.94325
299.94836
299.96395
299.96526
299.96821
299.96544
299.98753
300.00738
300.01268
300.03077
300.01324
300.01308
300.02682
300.02403
300.03616
300.05713
300.04213
300.04682
300.03059
300.01221
299.99819
299.99501
299.98871
299.98524
299.99493
300.00068
299.99768
299.99303
299.9902
299.9887
299.98791
299.98157
299.98136
299.98174
299.9836
299.98599
299.98298
299.9941
299.99072
299.98835
299.98714
299.98698
299.99239
299.99105
299.99677
299.99853
299.99217
299.99398
299.99666
299.99405
300.00159
300.00579
299.99684
300.00057
299.99053
299.98022
299.97997
299.98027
299.98099
299.98049
299.98599
299.98575
299.97942
299.9789
299.9803
299.98537
299.99007
299.99546
299.99418
299.98921
299.9894
299.99061
299.99661
299.99492
299.9966
299.99891
299.99179
299.99005
299.99124
299.99367
300.00208
299.99886
300.00229
300.00664
300.0118
300.01814
300.02497
300.0315
300.01896
300.01285
300.02389
300.03374
300.04962
300.03884
300.05795
300.07517
300.08812
300.07307
300.08204
300.14596
300.16386
300.1446
300.12592
300.10199
300.05191
300.02523
300.01006
300.00516
299.99037
299.98545
299.99945
300.0074
300.01683
299.99792
300.00619
300.02731
300.0397
300.04035
300.02833
300.01236
299.99792
300.00829
300.03729
300.06684
300.03598
300.05158
300.06297
300.13189
300.10092
300.07234
300.03513
299.99736
299.98583
299.95718
299.94988
299.94319
299.93627
299.91169
299.92656
299.92872
299.9326
299.92222
299.9291
299.9197
299.92878
299.9409
299.95548
299.95388
299.95723
299.94326
299.93628
299.92135
299.93152
299.92665
299.93657
299.94461
299.95327
299.94766
299.96065
299.96224
299.94714
299.95287
299.94279
299.93526
299.93836
299.92861
299.9241
299.93395
299.92273
299.94017
299.94095
299.95754
299.95398
299.93272
299.93125
299.95714
299.95989
299.98034
299.98383
300.00931
300.02724
300.0113
300.00048
299.99367
299.98019
299.98334
299.99011
299.98402
299.9983
300.00837
300.02556
300.00177
299.98909
299.99803
300.02204
300.05367
300.08465
300.04024
300.01576
300.00243
299.98771
299.99712
300.00191
299.99018
299.98434
299.97224
299.97112
299.96951
299.96796
299.96971
299.96184
299.95789
299.95858
299.96215
299.9706
299.9715
299.96263
299.96571
299.96874
299.96878
299.97475
299.97481
299.97539
299.98079
299.98087
299.97715
299.96916
299.96437
299.96062
299.95499
299.95973
299.95969
299.96427
299.96033
299.95476
299.94845
299.9486
299.94903
299.94989
299.94236
299.94405
299.94072
299.94369
299.947
299.95057
299.95435
299.95818
299.9667
299.98213
299.99061
299.99685
299.99997
300.00006
300.00116
299.99908
300.00126
300.00408
300.00277
299.99992
299.99652
299.99984
299.99592
299.99034
299.98686
299.99289
299.99756
299.99191
299.98906
299.98363
299.98108
299.97687
299.98364
299.98589
299.97935
299.98378
299.98737
299.99236
299.99583
299.99372
299.9892
299.98717
299.99585
299.99898
300.00391
300.00198
300.00243
300.00291
300.0059
300.00734
300.00208
299.9992
300.00298
300.0017
299.99697
299.99507
299.99786
300.00225
300.0004
300.00494
300.00542
300.0058
300.0069
300.00841
300.00869
300.00869
300.00565
300.00564
300.00755
300.00901
300.0047
299.99954
300.00181
299.99689
299.99222
299.98684
299.98935
299.98453
299.98874
299.99042
299.99621
300.00017
299.99828
299.99358
299.9874
299.98968
299.9868
299.98441
299.9776
299.98156
299.98422
299.98026
299.9848
299.99017
299.99255
299.99646
299.99467
299.99037
299.99299
299.98801
299.98312
299.97845
299.97539
299.97241
299.97323
299.97047
299.96978
299.96517
299.96801
299.96874
299.96576
299.96737
299.97182
299.97453
299.97686
299.97425
299.96994
299.97278
299.97023
299.96607
299.97052
299.96691
299.96369
299.96443
299.9608
299.96023
299.95483
299.95851
299.95932
299.95545
299.95756
299.96262
299.96556
299.96892
299.96447
299.96114
299.95662
299.96276
299.97021
299.97795
299.97501
299.97186
299.97258
299.96815
299.96752
299.96454
299.96909
299.96966
299.965
299.96647
299.96955
299.97379
299.97603
299.97199
299.9689
299.97319
299.97088
299.96855
299.97554
299.98354
299.99023
299.98125
299.97311
299.97006
299.97895
299.98116
299.97231
299.97763
299.98046
299.9736
299.97571
299.9783
299.98257
299.9763
299.98414
299.97921
299.98176
299.97827
299.98154
299.97913
299.97565
299.97197
299.97471
299.97126
299.9682
299.96546
299.96392
299.96328
299.95967
299.96012
299.95485
299.9589
299.96064
299.96385
299.96005
299.96456
299.96178
299.9568
299.95159
299.95624
299.95424
299.95856
299.9537
299.95456
299.94972
299.94898
299.94243
299.94767
299.94869
299.9434
299.94651
299.95224
299.95626
299.96098
299.96524
299.96923
299.97312
299.97687
299.97919
299.98247
299.98034
299.97687
299.97918
299.97557
299.97205
299.97666
299.98452
299.9893
299.98546
299.98898
299.98743
299.98364
299.98082
299.98267
299.98658
299.9849
299.98261
299.98445
299.98007
299.97615
299.9735
299.97015
299.9728
299.96808
299.96449
299.97036
299.98002
299.9748
299.97727
299.98224
299.98051
299.9753
299.97801
299.97631
299.97922
299.98227
299.98835
299.99349
299.99699
299.99983
300.00446
300.00303
300.00318
300.00302
299.99977
300.00232
300.00346
300.00295
299.99871
299.99598
299.99754
300.00217
300.00115
299.99991
299.99499
300.00063
299.99807
299.9953
299.99195
299.99075
299.99429
299.9926
299.99368
299.99004
299.98883
299.98702
299.98829
299.99192
299.99871
299.99574
299.99681
299.99985
300.00089
300.00028
299.99729
299.99605
299.9992
299.99838
299.99904
299.99835
299.99479
299.99104
299.99233
299.9912
299.99008
299.98546
299.98658
299.98513
299.98898
299.99157
299.99448
300.00022
299.99843
299.9951
299.99613
299.99736
299.99453
299.9911
299.98808
299.98569
299.98371
299.98625
299.98242
299.97959
299.97679
299.9723
299.9753
299.97204
299.96739
299.96417
299.9681
299.96519
299.9694
299.96612
299.97094
299.96857
299.96612
299.96497
299.96737
299.96691
299.96183
299.96214
299.95949
299.95936
299.96468
299.96296
299.96308
299.95709
299.95718
299.95531
299.9613
299.96118
299.95495
299.95619
299.95843
299.9609
299.96359
299.95843
299.95675
299.95646
299.95352
299.95361
299.94715
299.95091
299.95296
299.95645
299.96135
299.95835
299.96351
299.9611
299.96665
299.96416
299.96217
299.96468
299.95888
299.95287
299.95552
299.95234
299.95529
299.94928
299.953
299.94969
299.94573
299.94356
299.95071
299.95088
299.94857
299.94808
299.94021
299.94237
299.94962
299.94719
299.95423
299.96066
299.96984
299.97959
299.98814
299.9944
299.98371
299.98511
299.99073
299.98479
299.98322
299.98973
299.98893
299.98263
299.9784
299.97641
299.97746
299.96786
299.96657
299.96827
299.97394
299.97542
299.96628
299.96773
299.96959
299.97139
299.9753
299.97725
299.97336
299.97125
299.967
299.96246
299.9674
299.96974
299.96626
299.969
299.97413
299.97651
299.9815
299.98362
299.98143
299.97938
299.97762
299.97974
299.97419
299.96918
299.96394
299.95989
299.95527
299.95095
299.94851
299.94754
299.95347
299.9486
299.94921
299.94303
299.94215
299.93506
299.94201
299.94309
299.93654
299.93521
299.9271
299.92899
299.93632
299.94019
299.9461
299.95117
299.95557
299.96038
299.95134
299.9463
299.95107
299.9459
299.95068
299.95544
299.96027
299.96584
299.96286
299.96607
299.9601
299.95638
299.95268
299.9567
299.96043
299.96644
299.96979
299.96689
299.96123
299.95717
299.96372
299.97042
299.97277
299.97865
299.98033
299.97841
299.97225
299.96994
299.97188
299.97804
299.97623
299.96954
299.9717
299.96951
299.97193
299.97466
299.97763
299.98076
299.98488
299.98209
299.98071
299.98355
299.9791
299.97587
299.97277
299.97829
299.97972
299.97769
299.97632
299.96999
299.96373
299.95793
299.96097
299.95678
299.95139
299.94714
299.94452
299.94399
299.93648
299.9374
299.93165
299.9399
299.93951
299.93072
299.92026
299.92787
299.92946
299.92064
299.91794
299.92063
299.91107
299.90087
299.91637
299.90955
299.89029
299.90807
299.9142
299.8987
299.9093
299.92836
299.93501
299.95316
299.97256
299.97573
299.99899
300.00583
299.97736
299.97413
299.97857
300.0063
300.03195
300.05409
300.07588
300.05583
300.07831
300.05136
300.03618
300.0593
300.08198
300.11533
300.14934
300.10359
300.07272
300.04861
300.07544
300.05194
300.07778
300.10905
300.14544
300.10651
300.14828
300.11036
300.06204
300.04459
300.02958
300.01054
299.98267
299.99622
300.00131
299.98483
300.01984
300.03345
300.01706
299.9821
299.99464
299.98875
300.02209
300.03788
300.05808
300.00199
299.98937
300.00597
300.01383
300.08659
300.15196
300.12428
300.09334
300.06233
300.09712
300.15428
300.23567
300.13735
300.17177
300.27521
300.37917
300.37493
300.23052
300.29873
300.44121
300.39369
300.56996
300.55509
300.37413
300.22286
300.18389
300.3323
300.41161
300.23198
300.28915
300.20057
300.28347
300.21392
300.16051
300.11248
300.08587
300.12549
300.21267
300.13738
300.16419
300.25388
300.35206
300.30926
300.17474
300.22573
300.38592
300.464
300.74073
300.53166
300.35893
300.22116
300.20896
300.10926
300.06079
300.06942
300.03692
300.01887
300.00507
300.02048
300.04982
300.02722
300.0166
300.05481
300.07815
300.106
300.12747
300.14874
300.08466
300.05227
300.05337
300.03784
300.01957
300.00778
300.0007
299.9961
300.00356
300.00335
299.99986
299.99315
299.99589
299.98834
299.98853
299.98073
299.98052
299.98041
299.98722
299.98688
299.98377
299.98578
299.98582
299.99248
299.99213
299.99263
299.98839
299.98712
299.97698
299.96898
299.96935
299.97738
299.98097
299.97543
299.97577
299.98142
299.98583
299.98338
299.98333
299.98618
299.99176
299.99174
299.99351
299.9987
299.99055
299.98372
299.98239
299.9799
299.97823
299.97042
299.9724
299.97674
299.9785
299.98388
299.98688
299.98832
299.99121
299.99231
299.996
299.99629
299.99847
300.00463
300.00859
300.00135
300.00404
299.99765
299.9966
299.99812
300.00042
300.00239
300.00595
300.00933
300.0213
300.01795
300.00674
300.00082
299.99839
300.00032
300.01238
300.0027
300.00904
300.01705
300.03015
300.04609
300.04918
300.03238
300.01924
300.03236
300.02023
300.01345
300.02335
300.01156
300.00572
300.00116
300.0035
299.99902
299.99587
299.99693
299.99428
299.98703
299.98593
299.98471
299.98183
299.97525
299.97883
299.9812
299.98518
299.99106
299.99069
299.99354
299.9944
299.99544
299.99642
299.99759
299.99856
299.99941
299.99275
299.99525
300.00268
300.00151
299.99427
299.99202
299.98629
299.97978
299.98017
299.98011
299.98056
299.98157
299.98189
299.99145
299.99658
299.9847
299.98406
299.9959
299.9911
300.00035
300.0091
300.00943
300.01843
300.01779
300.00713
300.0055
299.99933
300.00808
300.01622
300.01361
300.00643
299.99787
300.00323
299.99237
299.99438
299.99019
299.98778
299.98695
299.97951
299.97984
299.98082
299.98273
299.98113
299.96991
299.97098
299.972
299.97251
299.97233
299.97213
299.96298
299.96587
299.96593
299.96878
299.96875
299.97474
299.97304
299.97316
299.96588
299.95969
299.95968
299.96423
299.96022
299.95467
299.95471
299.96027
299.96424
299.96433
299.96873
299.9746
299.97274
299.96575
299.96567
299.96876