/*--------------------------------*- C++ -*----------------------------------*\
  =========                 |
  \\      /  F ield         | OpenFOAM: The Open Source CFD Toolbox
   \\    /   O peration     | Website:  https://openfoam.org
    \\  /    A nd           | Version:  7
     \\/     M anipulation  |
\*---------------------------------------------------------------------------*/
FoamFile
{
    version     2.0;
    format      ascii;
    class       volScalarField;
    location    "280";
    object      k;
}
// * * * * * * * * * * * * * * * * * * * * * * * * * * * * * * * * * * * * * //

dimensions      [0 2 -2 0 0 0 0];

internalField   nonuniform List<scalar> 
24866
(
3468.0717
3534.7256
3544.0126
4134.4707
4720.524
4709.4528
4668.8072
4720.9908
4726.3621
4663.2359
4689.3411
4689.6802
4664.0806
4726.914
4720.4741
4670.7035
4704.9731
4722.0256
4706.6942
4690.9979
4624.2181
4736.622
4869.5676
4808.5673
4680.6341
4596.4656
4694.8288
4817.7238
4804.8803
4641.1205
4711.585
4709.6308
4709.6239
4711.5907
4641.3287
4804.9688
4818.2784
4695.362
4595.9065
4679.9611
4808.3829
4869.5517
4736.6734
4624.2301
4691.5316
4706.4068
4722.7643
4704.3668
4671.1589
4719.2837
4727.8535
4663.819
4689.3483
4689.6093
4664.4658
4725.934
4721.481
4667.8368
4710.6899
4719.4646
4752.6095
4724.5008
4753.0994
4755.0713
4682.0332
4715.4451
4776.2416
4764.5617
4682.5531
4685.1263
4685.3531
4682.9457
4764.7574
4776.2907
4715.6652
4681.1981
4751.0707
4750.671
4715.2507
4735.338
4728.979
4629.0706
4642.9317
4701.2064
4720.5181
4783.7916
4715.4508
4654.9224
4727.1819
4792.218
4720.744
4663.0079
4703.5674
4707.4541
4700.5278
4683.5392
4671.6705
4691.7127
4686.4663
4696.1157
4692.3833
4695.637
4691.489
4697.8624
4702.1257
4702.1822
4700.0026
4704.9691
4698.688
4691.2084
4642.1999
4744.119
4740.8901
4714.0632
4679.3662
4693.9758
4695.7227
4698.219
4701.971
4704.2194
4703.7523
4700.451
4703.6658
4698.5236
4692.9096
4689.9202
4676.2491
4682.5733
4685.4607
4692.5694
4699.8322
4705.2312
4708.193
4706.7163
4707.2819
4705.4069
4701.9911
4700.0326
4695.7362
4698.7155
4679.3957
4642.2406
4744.1122
4740.8762
4537.8759
4539.065
4169.7381
4112.9493
4124.4618
4124.4619
4112.9424
4052.9215
4066.3551
4590.7973
4589.6348
4084.2935
4101.8255
4012.0461
4082.5029
4063.0194
3947.5412
3918.9624
4025.9224
4095.7859
4121.6583
4133.4638
4110.7664
4071.3109
4118.4849
4120.6354
4047.9966
4047.7703
4047.3147
4046.955
4119.8232
4118.5369
4070.4435
4113.8099
4179.8772
4190.8575
4548.8809
4550.8813
4166.1737
4015.2354
4177.9443
4123.9045
4074.2235
4688.6135
4695.4124
4688.6251
4696.1381
4689.4323
4675.7271
4682.3904
4685.2392
4692.2843
4699.4326
4704.6923
4707.5579
4708.2216
4708.8532
4707.3087
4704.264
4702.2345
4703.6157
4705.0004
4720.7917
4691.231
4098.8536
4124.8146
4452.3975
4590.9325
4066.1361
4052.9418
3518.2732
3530.8438
3536.3009
3536.2979
3530.8271
3518.2337
3493.7387
3503.8446
3512.1927
3489.5318
3505.7535
3492.8272
3448.8668
3432.1633
3498.196
3522.1211
3535.9748
3542.128
3533.1015
3534.109
3532.676
3535.4452
3517.4519
3513.4025
3513.3154
3516.8111
3534.5961
3532.2238
3533.4408
3078.4713
3076.37
3077.8636
3077.7892
3076.6067
3535.093
4114.5067
4070.2285
4119.001
4119.5316
4048.2801
4047.6801
4047.3627
4047.6225
4120.5076
4117.6885
4071.8467
4110.4544
4133.9953
4121.6109
4096.1864
4026.0487
3919.0986
4440.055
4637.0918
4568.4658
4063.332
4082.8209
4012.2052
4101.5898
4083.8193
4590.0404
4466.3001
4161.619
4120.7697
3992.2156
4156.5014
4190.0297
4199.5848
4577.7959
4792.4052
4727.2991
4654.8919
4663.0403
4720.4957
4707.5183
4702.2033
4703.8242
4706.7697
4703.7403
4705.2796
4704.7135
4702.0686
4697.4916
4692.2846
4692.3446
4694.5193
4697.5095
4699.4735
4699.8945
4698.6108
4695.7478
4700.5458
4697.9637
4700.6202
4701.2252
4643.0318
4683.6783
4691.6169
4691.8657
4692.5064
4693.0003
4692.6379
4692.3482
4692.3211
4692.3538
4696.1417
4689.4956
4685.3326
4685.5351
4690.0025
4696.2477
4686.6464
4715.412
4671.8542
4629.246
4729.331
4735.3114
4531.8344
4176.6935
4155.7616
4525.8575
4137.9169
4159.4153
3994.0054
3453.5821
3522.4193
3498.3463
3432.2664
3449.0291
3948.0412
3957.0314
4094.1065
4122.334
4456.5219
4438.2342
4123.1091
3973.8329
4138.0449
3423.2535
3492.9242
3505.7417
3489.4932
3512.2915
3503.9261
3493.7476
3045.9134
3065.4758
3071.4357
3072.1795
3072.1775
3071.4242
3065.4534
3045.913
3047.9516
3054.1483
3046.6604
3051.5878
3041.4058
3020.7008
3015.511
3053.6899
3066.3164
3072.5522
3076.3984
3075.7
3079.0813
3075.2106
3076.9184
3071.7895
3070.6199
3070.2666
3071.0118
3076.188
3074.6673
2706.1145
2709.671
2707.3642
2706.8898
2706.8778
2707.5319
2709.8232
3078.5793
3533.4134
3532.6265
3534.873
3517.5498
3513.3854
3513.4413
3517.368
3535.2276
3532.1569
3534.2808
3532.994
3542.4465
3536.0668
3072.6518
3066.5209
3053.8246
3015.612
3020.8349
3041.4972
3051.6142
3046.6564
3054.1856
3047.9664
2685.1289
2684.9999
2698.9279
2702.4258
2702.4764
2702.4759
2702.4176
2698.913
2684.9954
2685.1167
2689.2476
2687.2435
2688.3786
2680.8077
2669.6179
2668.2969
2691.3225
2699.4778
2703.193
2705.8157
2707.1418
2710.2143
2706.6553
2707.7126
2706.686
2706.3204
2706.0826
2706.1113
2707.0943
2406.9759
2406.3936
2409.1742
2407.148
2406.1499
2406.1632
2407.2756
2409.3308
2406.6522
2407.2768
2707.4376
3076.5276
3071.7917
3070.6266
3070.4022
3071.4306
3076.6629
3074.8364
3079.0877
3075.6397
3076.5673
2705.898
2703.2706
2699.6153
2691.4301
2668.3835
2669.7185
2680.8793
2688.4057
2687.2489
2689.273
2393.0308
2390.0878
2390.7523
2400.4879
2402.6251
2402.5882
2402.5875
2402.619
2400.4771
2390.7463
2390.0776
2393.0125
2393.2163
2392.7951
2386.9891
2380.4893
2380.853
2395.3115
2400.8199
2403.3994
2405.3131
2407.1033
2409.64
2406.8817
2407.4809
2407.9222
2407.9247
2407.7483
2407.4842
2162.3358
2161.3397
2161.0346
2163.106
2161.4123
2160.3846
2160.4057
2161.5132
2163.25
2161.2501
2161.5921
2162.6314
2407.8829
2706.658
2706.3437
2706.2084
2706.4228
2707.4565
2706.3555
2710.1413
2707.0876
2407.0489
2405.3478
2403.4532
2400.9125
2395.3948
2380.9243
2380.5659
2387.0458
2392.8208
2393.226
2151.3231
2150.3572
2148.1983
2149.2036
2156.0797
2157.4176
2157.4215
2157.4203
2157.4126
2156.0712
2149.1973
2148.1897
2150.3435
2151.312
2150.2704
2145.7587
2141.7868
2142.8951
2152.3913
2156.2103
2158.1779
2159.6664
2161.4093
2163.4885
2161.4548
2161.7508
2162.6747
2162.8968
2162.7633
1959.8928
1959.4074
1958.3527
1958.2153
1959.7293
1958.3669
1957.4782
1957.5001
1958.4484
1959.855
1958.3932
1958.5602
1959.6306
1960.0078
2162.9132
2407.9485
2407.8537
2407.7205
2407.2592
2406.6417
2409.5399
2163.3868
2161.3571
2159.6768
2158.214
2156.2743
2152.4558
2142.9533
2141.8461
2145.8041
2150.2939
1949.4105
1950.6265
1949.5361
1947.957
1949.0571
1953.9944
1954.8849
1954.9543
1954.953
1954.8806
1953.9874
1949.0512
1947.9495
1949.5252
1950.6151
1949.3894
1945.868
1943.3506
1944.7261
1951.241
1953.9901
1955.5938
1956.8109
1958.3449
1960.0296
1958.566
1958.6873
1959.6738
1959.9957
1789.8571
1789.7752
1789.3029
1788.364
1788.3143
1789.4073
1788.3517
1787.641
1787.6611
1788.4185
1789.5146
1788.4608
1788.5334
1789.4752
1789.8666
1789.836
1959.9628
2162.8476
2162.5198
2161.567
2161.2643
1958.4153
1959.9373
1958.2975
1956.81
1955.6182
1954.0358
1951.2915
1944.7737
1943.3975
1945.9049
1778.1734
1780.9128
1782.1143
1781.1555
1780.0217
1781.0811
1784.6813
1785.3314
1785.4573
1785.4561
1785.3277
1784.6754
1781.0756
1780.0152
1781.1464
1782.1033
1780.894
1778.143
1776.5105
1777.904
1782.542
1784.6096
1785.9701
1786.9963
1788.2906
1789.6334
1788.6004
1788.6368
1789.5167
1644.8951
1645.2123
1645.1467
1644.7229
1643.9487
1643.9352
1644.716
1643.9211
1643.3767
1643.3942
1643.9765
1644.8067
1644.056
1644.0867
1644.8574
1645.2198
1645.1992
1644.8234
1789.4241
1959.5547
1958.5385
1788.5174
1788.4812
1789.5538
1788.2491
1786.9906
1785.987
1784.6436
1782.5824
1777.9433
1776.5485
1634.4218
1635.4876
1637.628
1638.7291
1637.976
1637.18
1638.1313
1640.7907
1641.3071
1641.4708
1641.4696
1641.3039
1640.7857
1638.1263
1637.1743
1637.9682
1638.7187
1637.6112
1635.462
1634.3905
1635.6801
1639.0797
1640.6952
1641.8708
1642.749
1643.8209
1644.8792
1644.1646
1644.1706
1519.8081
1520.3828
1520.6595
1520.6068
1520.2434
1519.6277
1519.6218
1520.1749
1519.5852
1519.1795
1519.1945
1519.6316
1520.2514
1519.7218
1519.7402
1520.3496
1520.6656
1520.6518
1520.3273
1519.7325
1644.0755
1644.0701
1644.8124
1643.7853
1642.7419
1641.883
1640.7215
1639.1125
1635.713
1512.9759
1511.8384
1512.5417
1514.2148
1515.1859
1514.6353
1514.0887
1514.907
1516.8936
1517.3248
1517.5079
1517.5069
1517.322
1516.8892
1514.9025
1514.0836
1514.6285
1515.1763
1514.1998
1512.52
1511.8122
1512.9482
1515.498
1516.7946
1517.8165
1518.5728
1519.4535
1520.2871
1519.8035
1411.5335
1411.5492
1411.9992
1412.2321
1412.1893
1411.8857
1411.4025
1411.3913
1411.7808
1411.3439
1411.0474
1411.0602
1411.383
1411.8453
1411.4743
1411.4946
1411.9704
1412.2372
1412.2282
1411.9562
1411.4891
1411.4733
1519.7282
1520.2316
1519.4233
1518.5654
1517.8255
1516.8154
1515.5251
1407.8903
1405.9419
1404.9684
1405.4343
1406.7438
1407.5826
1407.2038
1406.8363
1407.5215
1409.0217
1409.388
1409.5764
1409.5755
1409.3855
1409.0178
1407.5174
1406.8317
1407.1977
1407.5738
1406.7305
1405.4156
1404.9462
1405.9184
1407.8677
1408.925
1409.814
1410.4671
1411.1897
1411.8527
1316.6139
1316.4097
1316.4395
1316.7928
1316.9853
1316.9504
1316.7
1316.3203
1316.2997
1316.5736
1316.2462
1316.0329
1316.0438
1316.2793
1316.6282
1316.369
1316.3961
1316.7683
1316.9895
1316.9838
1316.7595
1316.3916
1316.3613
1316.5758
1411.8067
1411.1641
1410.4601
1409.8208
1408.9419
1314.1591
1313.2944
1311.78
1310.9607
1311.2707
1312.2982
1313.0144
1312.7708
1312.5293
1313.094
1314.2399
1314.5503
1314.7344
1314.7335
1314.5481
1314.2365
1313.0904
1312.5253
1312.7654
1313.0063
1312.2863
1311.2546
1310.9417
1311.76
1313.2755
1314.1454
1314.9181
1315.483
1316.0774
1231.8836
1232.3271
1232.2019
1232.2442
1232.5252
1232.683
1232.6544
1232.4491
1232.1476
1232.118
1232.3113
1232.0607
1231.9096
1231.9189
1232.0889
1232.3577
1232.1763
1232.2103
1232.5047
1232.6867
1232.6833
1232.4994
1232.206
1232.1626
1232.2955
1231.865
1316.0557
1315.4766
1314.9233
1230.9066
1230.2428
1229.5286
1228.333
1227.6496
1227.8572
1228.6659
1229.274
1229.1323
1228.978
1229.4396
1230.3259
1230.5859
1230.7598
1230.759
1230.584
1230.3229
1229.4365
1228.9745
1229.1276
1229.2668
1228.6555
1227.8433
1227.6334
1228.316
1229.5127
1230.2316
1230.9028
1231.3922
1156.4641
1156.8728
1157.2476
1157.1756
1157.2273
1157.455
1157.5842
1157.5606
1157.3925
1157.1492
1157.113
1157.2507
1157.0535
1156.9482
1156.956
1157.0776
1157.2903
1157.1622
1157.2014
1157.4381
1157.5876
1157.5856
1157.435
1157.1967
1157.1436
1157.2213
1156.8568
1156.4584
1231.3863
1232.4348
1233.4906
1231.601
1232.0728
1233.0669
1229.5172
1230.3062
1231.3613
1231.898
1231.4024
1230.6511
1155.9521
1154.4805
1154.8571
1155.5517
1155.7666
1155.9271
1155.9263
1155.765
1155.5494
1154.8548
1154.4779
1154.5716
1154.6366
1154.1189
1153.477
1153.3347
1153.9021
1154.8609
1155.4565
1156.0393
1088.9515
1089.3207
1089.6633
1089.9868
1089.9498
1090.0074
1090.196
1090.3019
1090.2823
1090.1441
1089.944
1089.9038
1090.0038
1089.8436
1089.7715
1089.7785
1089.8647
1090.0379
1089.9458
1089.9879
1090.182
1090.305
1090.3041
1090.1805
1089.9828
1089.9235
1089.9645
1089.6493
1089.3153
1088.953
1156.0419
1155.4655
1154.874
1153.9163
1153.3482
1153.4886
1154.1275
1154.6425
1154.5751
1087.7361
1087.6819
1087.9898
1088.542
1088.7169
1088.8626
1088.8623
1088.7161
1088.541
1087.9894
1087.6815
1087.735
1087.7478
1087.3092
1086.7996
1086.7017
1087.173
1087.9516
1088.4455
1028.0824
1028.5217
1028.843
1029.1322
1029.4167
1029.4021
1029.4624
1029.6222
1029.7097
1029.6931
1029.5786
1029.4105
1029.3689
1029.4436
1029.3091
1029.261
1029.2672
1029.3277
1029.4735
1029.4053
1029.4479
1029.6105
1029.7124
1029.7122
1029.6099
1029.4421
1029.3799
1029.3974
1029.1195
1028.8372
1028.5213
1028.086
1088.4523
1087.9617
1087.1838
1086.7116
1086.8077
1087.3148
1087.7508
1027.4858
1027.5072
1027.4799
1027.7335
1028.1791
1028.3192
1028.4503
1028.4507
1028.3205
1028.1815
1027.7377
1027.4853
1027.5125
1027.4896
1027.1176
1026.7107
1026.6414
1027.0335
1027.6733
973.10712
973.44369
973.82458
974.10415
974.34956
974.60437
974.603
974.66314
974.80214
974.87535
974.86105
974.76474
974.61989
974.57928
974.63764
974.52006
974.48929
974.4949
974.53682
974.66423
974.61131
974.65244
974.79219
974.87767
974.8779
974.79196
974.64586
974.58363
974.58687
974.33691
974.09649
973.82032
973.44123
973.10435
1027.679
1027.0387
1026.6449
1026.7119
1027.1162
972.61196
972.92583
972.97055
972.96048
973.17201
973.53809
973.64777
973.76573
973.76773
973.65381
973.54831
973.18744
972.97994
972.99149
972.9461
972.6298
972.30199
972.24977
972.57622
923.036
923.47881
923.74931
924.07781
924.31989
924.52833
924.76184
924.76653
924.82359
924.94896
925.01211
924.99945
924.91606
924.7865
924.74917
924.79801
924.68946
924.67127
924.67646
924.70493
924.82228
924.7781
924.81555
924.94022
925.01402
925.01448
924.94014
924.80824
924.74885
924.74484
924.51415
924.308
924.0658
923.73463
923.45856
923.00562
972.57008
972.23935
972.28775
922.76226
923.02437
923.2913
923.34932
923.3483
923.5288
923.83654
923.91882
924.02656
924.0322
923.936
923.86492
923.57021
923.4005
923.40633
923.34925
923.07931
922.81097
922.76531
877.53772
877.75721
878.12409
878.32713
878.60573
878.81214
878.98747
879.20885
879.21354
879.26461
879.38435
879.44209
879.43056
879.35454
879.23161
879.19985
879.24464
879.13566
879.12673
879.13166
879.15036
879.26739
879.22671
879.25829
879.37638
879.4436
879.44422
879.37637
879.25046
879.19667
879.19099
878.96942
878.79161
878.5783
878.2877
878.068
877.67646
877.43231
922.72435
923.76456
924.21436
924.68584
924.91354
924.72477
924.31324
878.89513
877.97162
878.13132
878.39837
878.45381
878.55622
878.56952
878.49495
878.4656
878.22826
878.09417
878.10617
878.04775
877.8162
877.58928
836.08524
836.01013
836.17487
836.46801
836.59106
836.81659
836.98563
837.12869
837.34961
837.34884
837.39122
837.51587
837.57409
837.56339
837.48824
837.36091
837.33679
837.38193
837.25949
837.25724
837.26202
837.27378
837.40376
837.36228
837.38603
837.50849
837.57531
837.57606
837.50857
837.37797
837.33228
837.32945
837.1033
836.949
836.76014
836.50389
836.34233
835.99567
835.77766
835.8193
877.46746
877.68219
877.90921
877.97185
836.25054
836.24073
836.38899
836.63078
836.65631
836.76069
836.78887
836.74485
836.77464
836.59531
836.50237
836.53748
836.48948
836.28945
798.04597
797.84339
797.71921
797.81351
798.02214
798.03822
798.19898
798.32432
798.4327
798.66831
798.65735
798.68946
798.83329
798.89893
798.8885
798.8069
798.66112
798.64587
798.69472
798.54105
798.54297
798.54764
798.55507
798.71582
798.67024
798.68513
798.82626
798.90025
798.90113
798.82653
798.6772
798.641
798.6444
798.39533
798.26023
798.09206
797.86569
797.77089
797.45606
797.25534
797.31548
797.47299
835.99949
836.19193
797.63462
797.67977
797.64664
797.79104
798.02085
798.00902
798.12519
798.17981
798.18316
798.30304
798.19495
798.16043
798.24321
798.22043
762.90274
762.74882
762.52463
762.31798
762.30932
762.40548
762.27216
762.34525
762.41553
762.48443
762.75219
762.7284
762.75119
762.93079
763.01214
763.00219
762.90624
762.72578
762.7183
762.77234
762.56686
762.56977
762.57425
762.58039
762.79241
762.74117
762.74843
762.9246
763.01388
763.01491
762.9251
762.74066
762.71288
762.72384
762.43047
762.30986
762.1595
761.96093
761.94692
761.65575
761.46727
761.56007
761.70592
761.83944
761.86142
761.78875
761.93299
762.16031
762.09999
762.23879
762.33559
762.41339
762.66889
762.66201
762.7196
762.88255
730.275
730.35585
730.21852
729.95083
729.62623
729.4615
729.39287
729.05702
729.0087
729.00946
729.03524
729.34941
729.31634
729.33649
729.56561
729.67021
729.66137
729.54492
729.3173
729.31169
729.36802
729.09537
729.09487
729.09897
729.10776
729.38611
729.33198
729.33742
729.56131
729.67175
729.67288
729.56182
729.32922
729.30354
729.31846
728.96376
728.85148
728.71673
728.54685
728.62639
728.36018
728.18593
728.32221
728.46377
728.57108
728.56304
728.43816
728.57861
728.80423
728.68555
728.85408
729.01034
729.19874
729.64502
729.79316
729.99693
700.05092
700.4686
700.61692
700.49352
700.17291
699.70645
699.30261
698.97657
698.38645
698.17912
698.10077
698.08771
698.44641
698.42441
698.45981
698.73659
698.86385
698.85737
698.7232
698.45249
698.43398
698.47685
698.14413
698.13607
698.13948
698.1544
698.49147
698.44983
698.4682
698.73599
698.86507
698.8661
698.73583
698.45815
698.41848
698.41985
698.00798
697.89616
697.77456
697.63728
697.80799
697.58955
697.44764
697.61848
697.74792
697.82822
697.79339
697.62132
697.74206
697.9468
697.77284
697.96701
698.19285
698.5301
699.21981
699.61659
672.42172
673.2375
673.79221
673.97788
673.86451
673.5201
672.92085
672.12807
671.3609
670.46929
670.08323
669.936
669.89692
670.26669
670.31511
670.40237
670.69335
670.83061
670.8273
670.69146
670.41466
670.35141
670.33088
669.98681
669.97793
669.98041
669.99371
670.34033
670.3607
670.42265
670.69854
670.83233
670.83254
670.69722
670.41035
670.32305
670.25863
669.83481
669.72467
669.61363
669.50528
669.7371
669.64997
669.59026
669.73271
669.79907
669.84482
669.80817
669.63178
669.69562
669.81631
669.61713
669.82163
670.10467
670.61086
671.59337
646.94816
648.63533
650.09695
650.74045
650.86968
650.76298
650.48916
649.80797
648.36881
646.73654
645.44509
644.92953
644.76367
644.69127
644.97016
645.25109
645.43094
645.65357
645.85618
645.87172
645.68004
645.46692
645.3234
645.08993
644.85776
644.90247
644.90326
644.86003
645.09259
645.32554
645.46571
645.66564
645.85882
645.87301
645.67774
645.45101
645.27966
644.9993
644.68556
644.6293
644.52617
644.40137
644.61337
644.91825
645.03643
644.96868
644.84687
644.89056
644.87549
644.78912
644.71751
644.56785
644.44322
644.6602
644.94728
645.57402
622.81073
624.70234
628.77947
631.55709
631.80233
631.65356
631.56414
631.58477
631.29765
628.54236
624.51679
622.70018
621.90655
621.80274
622.10692
621.60176
623.08042
623.18206
623.17926
624.12458
624.12795
623.20889
623.24282
623.18916
621.78568
622.37056
622.12646
622.12578
622.368
621.78233
623.18268
623.2262
623.19574
624.1269
624.12514
623.19831
623.21491
623.13361
621.68478
622.19941
621.85804
621.76288
621.94605
621.64387
623.65972
623.21218
622.63055
622.44453
623.2669
622.56236
622.63239
622.58787
621.25461
621.88814
621.70599
621.91965
604.68894
604.94308
606.80528
613.60264
618.9992
617.87047
617.45493
617.36175
617.67944
618.7797
613.39543
606.66193
604.83216
604.72139
604.59738
604.69645
604.55322
605.20841
605.37045
605.40902
605.40777
605.42312
605.46207
605.45161
605.33691
604.78035
605.01451
605.08147
605.08412
605.00238
604.7614
605.31796
605.43683
605.4208
605.41062
605.42085
605.4429
605.43331
605.2876
604.66053
604.87457
604.80084
604.8592
604.62272
605.10712
608.7948
608.66832
605.83685
605.01958
604.89246
604.94229
604.94119
604.75976
604.26719
604.45103
604.52571
588.80557
588.74539
589.28718
591.09359
590.46418
589.63633
589.65573
589.41872
589.61485
590.1957
591.13212
589.06046
588.97488
588.71981
589.36766
589.94311
589.26191
589.18591
590.64281
589.93924
589.96347
590.71372
589.26528
589.41033
590.23111
589.6888
589.44985
589.47679
589.64035
590.23089
589.36566
589.24574
590.64243
589.93675
589.96281
590.68678
589.21498
589.41206
590.04341
589.73867
589.01792
589.6919
589.20534
590.93643
588.23975
587.73669
590.47325
590.71148
589.66233
590.33228
588.96419
588.76804
589.83373
588.89414
588.34182
588.51249
589.91781
590.07875
590.40499
591.09256
591.26726
590.94723
590.64073
590.41152
590.45548
590.23495
588.79255
588.86968
590.46138
590.36694
590.09025
590.10694
590.61596
590.02435
590.1963
590.88843
590.20468
589.9989
590.37049
590.8463
588.69842
588.59286
603.47409
603.28985
607.05678
607.57704
617.445
608.16505
607.54354
605.86045
607.70526
616.92948
607.29201
602.99774
603.17764
607.12941
606.87551
604.96231
590.12951
589.81549
590.63145
590.61501
590.62488
589.82619
590.43787
591.03959
588.83386
589.10961
603.40565
603.22273
606.99056
616.98623
607.34926
607.92492
607.49682
605.35908
606.13402
610.50726
618.6952
610.00511
609.98771
610.50536
607.8067
603.3351
603.3559
607.64051
609.87995
609.43283
618.50886
608.01435
608.24095
604.58559
589.84356
590.63894
590.08213
590.43415
588.44127
587.94613
603.57936
607.73323
608.36006
618.22552
607.95056
603.60847
607.56684
605.74117
623.47142
624.75047
623.8086
621.92719
623.28322
622.81526
623.90931
646.12001
671.63841
672.59838
671.10898
645.44934
646.53966
647.66392
645.89936
671.86233
672.95357
671.18423
645.89352
646.29179
671.75938
672.00553
646.44812
624.11114
605.43528
606.01105
605.32449
605.81452
605.78062
604.54096
623.24111
625.40354
626.50966
624.11978
625.25649
626.87584
606.82826
606.53842
605.28623
604.68621
604.742
605.09963
606.35204
624.40157
624.00104
626.53357
627.24304
629.53149
614.37452
606.90502
604.69282
604.29255
604.15302
604.55206
606.69364
614.16916
613.81895
613.70112
613.78445
613.99618
630.19011
630.25265
628.46183
628.22986
607.69954
590.63048
590.83841
590.62589
585.38318
583.20891
582.7593
582.7264
583.1586
585.28143
585.78371
586.34658
587.01463
587.12093
586.47638
586.12295
585.65617
583.64972
583.21553
583.21261
583.64579
585.67219
586.15004
586.5831
587.24165
587.24237
590.34339
590.72348
590.24701
588.40552
588.78528
590.79938
590.41471
590.42714
590.81881
588.77222
588.4171
590.22106
590.69907
590.32698
587.21382
587.13065
586.44746
585.91203
585.38521
583.27647
582.81634
582.89169
583.37387
585.55215
586.08112
586.49452
587.16621
587.09915
586.42683
585.90756
586.70373
585.3854
581.20876
574.68329
567.65733
563.11541
563.13585
567.70889
574.72884
581.22976
585.46447
586.82388
586.22547
591.08908
591.42606
591.04452
591.10058
591.74195
590.54811
583.75911
585.74812
585.88699
583.31602
574.85636
569.21172
564.485
558.96401
554.61666
550.65511
548.80158
548.78929
550.61998
554.57492
558.89006
564.40065
569.15039
574.73853
564.43872
558.71896
551.98105
546.82349
541.80814
539.5663
539.58168
541.84819
546.88824
552.0753
558.84056
564.53008
559.09228
568.00101
578.67407
582.27094
581.54813
583.32888
583.32264
590.53378
591.73304
591.09454
591.03751
591.41525
591.05689
585.71406
583.74192
582.25747
581.53818
577.22881
577.23728
563.58218
550.92998
554.82775
547.08549
552.18177
544.79963
537.99432
532.19585
529.08903
529.07085
532.14347
537.90838
544.67516
552.02483
558.97354
567.81765
554.679
546.89613
537.93748
529.15499
521.95035
517.92641
517.96154
522.02422
529.26762
538.09638
532.37571
542.12383
539.89178
549.10699
549.09073
563.57547
550.88548
542.06565
539.86799
529.25957
529.29779
518.04412
522.08901
513.4971
508.57205
508.53607
513.41565
521.95529
532.18721
541.89644
550.74744
563.32119
548.90413
539.64055
529.09096
517.89361
508.49844
503.0928
503.12571
508.59366
508.53562
518.00581
521.97874
532.28029
537.98852
547.00987
554.77376
567.98702
578.66422
583.27942
585.8401
586.7659
586.17497
586.58875
587.95571
587.18453
585.4121
581.22323
574.86017
564.52479
559.04568
552.12302
544.70975
537.89535
529.13017
521.86938
513.36175
508.43048
503.06784
503.03589
508.44786
517.86635
529.05712
539.61252
548.88134
563.305
550.69409
541.83194
532.11162
521.86251
513.28588
508.39857
517.78104
517.79752
528.97899
532.08399
541.81338
546.85377
552.04189
558.83315
564.47542
569.19084
574.80018
567.81765
558.92264
554.58716
550.62134
548.7754
539.55204
539.54279
528.96115
532.04778
521.81623
529.04616
537.8454
546.81951
554.61903
567.78917
558.92456
551.9723
544.60855
537.83404
546.81103
541.78305
550.60364
548.76912
563.31244
563.31324
577.03176
578.49668
583.21611
585.3792
586.73115
587.95038
588.46362
595.22102
594.40565
593.17511
592.46137
587.95309
587.40993
587.42438
587.97387
592.52519
593.25112
594.3784
586.56077
587.93243
588.42972
587.8993
586.65169
585.66291
581.93304
581.16731
581.18355
581.95238
585.74297
586.73295
587.89725
588.41875
587.90422
587.13049
585.37173
583.11366
578.2911
576.76503
576.77229
578.30227
583.08287
585.32011
587.14816
592.97043
594.36386
593.1121
592.365
587.72699
587.15599
587.15804
587.72951
592.43222
593.18668
594.35959
595.20026
602.05712
594.38226
592.96381
591.53303
600.65911
589.62715
584.41881
594.53505
583.24911
569.45268
573.90708
580.79744
587.49471
591.5425
593.19759
600.65618
592.46124
585.73232
583.17873
578.50034
582.04675
581.30339
577.01649
576.99722
581.27356
582.00233
578.46646
583.10726
574.7252
569.11938
564.39267
558.87246
554.56403
567.79635
574.74974
581.17171
585.28534
586.58479
585.63123
592.34463
587.85288
587.30729
587.3427
587.90154
594.71982
584.6218
589.67937
580.87396
572.82042
574.64449
577.19209
571.29095
568.45602
562.4743
568.49361
571.30853
567.40798
559.10285
563.17151
562.01304
558.3163
559.9783
564.47525
555.25387
550.39942
555.13736
547.79449
555.18785
562.10402
574.09307
563.23166
564.54643
559.15033
555.32628
560.0521
558.42318
550.47763
545.01038
553.82712
569.68777
583.48179
583.45551
594.67145
584.57595
589.58166
600.51552
593.06269
591.41383
587.39678
580.80576
574.02781
569.66079
552.22379
552.25161
552.67563
554.03207
555.16479
548.89404
547.24918
542.94741
532.13623
535.24449
541.08624
545.34213
552.06376
545.30724
541.0515
532.02758
535.82992
528.18858
539.36084
548.79514
553.93776
553.68932
552.12795
552.58788
555.05774
547.15037
542.86195
544.90985
535.19359
532.11142
536.22555
523.954
520.53462
524.64917
515.86781
524.65948
528.19582
539.41227
536.25311
523.92496
520.50272
510.81331
513.76984
519.02284
513.81321
510.84484
505.2374
507.95844
510.95156
517.08583
527.73913
540.717
543.92387
549.99542
556.74035
561.64627
554.49395
544.458
554.54239
550.03468
540.07696
532.13222
536.22385
548.46956
544.98831
531.64088
535.74458
550.23956
564.82128
590.04348
594.53383
600.72678
606.56685
596.07444
590.42354
584.17587
580.0134
580.02651
594.53514
583.25101
584.41995
589.57971
600.57379
591.45727
587.47086
580.81562
573.9436
569.46881
552.13757
552.5966
555.07385
553.95067
553.71725
544.9463
542.87897
547.16696
548.81349
555.29182
560.00379
558.3486
562.06523
563.19924
564.50266
559.12923
555.20184
550.44915
541.11909
535.24249
532.1286
536.23821
539.39588
528.24284
523.97921
520.57515
524.71915
532.11969
535.89921
545.35092
552.12048
547.88926
541.20413
545.41877
539.50739
528.27829
519.08999
513.84
510.88551
515.94105
510.90106
505.27115
507.99113
513.85094
524.0199
520.62811
524.76263
535.38972
532.29116
536.35713
547.39894
549.03458
555.44197
559.24952
567.47594
571.34609
568.52034
572.87143
580.8795
574.67499
577.22866
571.34568
568.57033
562.56407
555.30497
562.20909
574.11092
563.30014
564.62437
560.12488
558.55322
550.62011
545.18363
553.9912
569.73056
554.1428
555.28388
552.78549
552.42883
543.1404
543.11316
532.25294
520.5893
510.8415
505.21331
505.18185
510.76281
520.47466
532.09904
542.91161
547.19619
552.6319
555.10028
553.95589
553.76762
544.93319
548.80152
555.19849
559.93457
558.34514
550.37405
555.09478
562.02507
563.10206
564.40268
559.01366
551.90187
545.19218
539.30069
536.20863
523.8758
528.06265
524.55263
535.15956
540.96792
531.88781
535.65214
545.12788
540.93406
547.6904
555.07874
551.97166
558.71562
564.42334
568.45404
571.23283
577.09391
567.33015
562.43451
568.43385
580.74756
572.77691
574.54689
571.19638
563.03177
558.98879
564.32604
555.13866
550.338
558.27954
573.88487
561.97503
559.82515
553.76819
548.65797
539.15394
527.97584
518.87101
513.71543
507.8992
513.64301
510.69627
515.72467
524.47948
520.35834
523.72444
536.00188
531.94778
535.04335
544.82758
542.78539
547.02035
554.88224
552.40054
569.44536
553.64785
552.08076
552.08756
542.79427
531.96556
520.37859
510.73107
513.66743
507.92659
513.77957
518.92259
515.80254
524.64633
528.13749
523.96105
536.31596
539.39072
535.28118
541.07227
531.95723
524.53385
528.02122
523.74534
536.01507
539.18156
535.07954
540.97773
545.16015
535.70313
545.25821
551.94284
547.76022
555.21045
550.52564
545.12015
548.95364
547.35599
555.21545
552.74926
569.71481
552.40718
553.9379
554.07205
560.01438
555.31294
564.47327
559.10096
563.16692
574.06128
558.48054
562.13029
568.54323
562.52343
555.12256
550.36932
544.85629
548.67087
547.02579
554.88536
552.40892
569.44279
553.66256
553.76906
559.83933
555.15809
564.33041
559.00046
563.03729
573.88824
558.29861
562.00322
568.49684
580.76838
571.24396
567.39447
577.12438
571.28342
580.83189
572.83722
574.59052
587.40524
595.97626
590.42833
584.29293
580.23494
580.25441
584.36111
590.50841
596.04349
590.42146
584.20149
594.54701
590.05992
564.84221
574.80158
585.96511
605.9413
617.50376
626.41827
626.49243
623.94837
623.35318
605.70027
605.13248
605.43019
623.2602
624.65634
624.71941
623.00862
621.89791
623.07133
624.98381
625.94577
606.06026
606.40116
604.38586
604.53421
626.52928
627.20445
626.55732
625.46422
626.7961
604.81472
590.1529
590.72361
591.2559
608.11166
606.54976
607.07055
627.6744
627.92536
607.06412
590.64409
589.85032
589.79833
590.5847
590.33723
590.43201
607.5871
607.51617
628.39116
630.16983
629.99244
628.06123
607.54777
590.52245
590.72237
590.5083
590.05711
590.61306
591.10347
590.80097
590.34475
590.00256
590.23996
591.00515
590.47322
590.47716
591.03737
590.34109
590.19619
590.44112
590.55875
588.91565
589.05019
590.30881
590.44468
590.72733
591.41273
591.71161
591.69858
591.35616
590.58662
590.20159
589.98773
588.69961
588.60114
603.22843
603.44586
607.50244
608.12486
607.52259
617.3746
606.98709
623.84149
624.25812
627.04807
629.30031
649.48418
650.38106
650.80111
650.89174
650.60038
649.74233
673.78443
700.97326
730.98214
732.49693
731.30035
730.26778
699.69966
700.89662
699.30907
730.003
731.49288
733.39874
730.78845
700.13553
701.2524
699.24684
729.87625
730.43179
699.85023
700.11334
730.6694
733.73849
733.17005
731.85285
735.22715
704.55564
702.7708
674.2386
675.90689
649.23045
646.99084
648.0482
674.20068
674.72435
648.46763
650.99889
650.54779
677.32485
677.91064
706.76008
703.15283
702.58339
706.07882
736.82257
737.5706
740.1358
740.11036
738.41222
736.16624
733.58338
703.06051
700.91621
672.99271
647.51596
648.31689
674.67925
676.60934
674.5117
649.33671
650.26628
651.71354
650.68758