/*--------------------------------*- C++ -*----------------------------------*\
  =========                 |
  \\      /  F ield         | OpenFOAM: The Open Source CFD Toolbox
   \\    /   O peration     | Website:  https://openfoam.org
    \\  /    A nd           | Version:  7
     \\/     M anipulation  |
\*---------------------------------------------------------------------------*/
FoamFile
{
    version     2.0;
    format      ascii;
    class       volScalarField;
    location    "280";
    object      nut;
}
// * * * * * * * * * * * * * * * * * * * * * * * * * * * * * * * * * * * * * //

dimensions      [0 2 -1 0 0 0 0];

internalField   nonuniform List<scalar> 
24866
(
7.9871355
7.993963
7.9907857
8.1778771
8.34244
8.3402624
8.336201
8.3404646
8.3397338
8.3348703
8.3351306
8.3351673
8.3348938
8.3397677
8.3405475
8.3361861
8.3400876
8.3413815
8.3405199
8.335994
8.3259471
8.340359
8.3708345
8.3582262
8.3324997
8.3285499
8.3363989
8.3604137
8.3556675
8.3291457
8.3383246
8.3413921
8.3413931
8.3383329
8.3291933
8.355715
8.3605212
8.3364912
8.3284418
8.3323263
8.358159
8.3707893
8.3403494
8.3259497
8.3360188
8.3405699
8.3414015
8.3401627
8.3361954
8.3404709
8.3398509
8.3349902
8.335128
8.3351426
8.3349533
8.3397322
8.3403457
8.3360847
8.3402264
8.3424874
8.3463461
8.3431123
8.3463375
8.3430537
8.3368247
8.3395651
8.3453971
8.3420151
8.334427
8.3344147
8.3344391
8.3344307
8.3420668
8.3454462
8.3395725
8.3366941
8.3425454
8.3453011
8.3417844
8.342912
8.3376679
8.3299889
8.3283386
8.33909
8.3427738
8.3480367
8.3326385
8.328703
8.3364108
8.3485094
8.3426931
8.3379986
8.3369822
8.3377791
8.3361347
8.3335112
8.3360501
8.3350034
8.3385973
8.3361764
8.3339798
8.3336445
8.3336961
8.3343288
8.3350399
8.3350421
8.3348628
8.3377238
8.336793
8.3364936
8.3331123
8.3401472
8.3441446
8.3419295
8.3378152
8.3354802
8.3346241
8.3341175
8.3344671
8.3347832
8.3347132
8.3341972
8.3345921
8.3338336
8.3333659
8.3340015
8.3360048
8.3335509
8.332843
8.3330735
8.3339658
8.3348381
8.3353571
8.3351047
8.3351934
8.3348855
8.3344705
8.3348677
8.3346264
8.3367969
8.3378182
8.3331203
8.3401505
8.3441465
8.2387928
8.2354673
8.1650566
8.1703746
8.1771268
8.1771236
8.1703663
8.1680425
8.1366847
8.2614392
8.2641287
8.1430927
8.1679657
8.1698923
8.1639898
8.1380045
8.0966436
8.1118258
8.157695
8.1688359
8.1759798
8.1755516
8.1747241
8.172708
8.1718563
8.1691773
8.1670743
8.1591506
8.1591111
8.1670622
8.1690821
8.1715924
8.1731114
8.1744523
8.1675744
8.1752216
8.2404414
8.238721
8.1677431
8.103295
8.1763665
8.1780563
8.1699248
8.3391133
8.3357885
8.3391203
8.336225
8.3339466
8.3359588
8.333528
8.3328141
8.3330321
8.333902
8.334748
8.3352506
8.3353619
8.3354649
8.3351981
8.3347911
8.335051
8.33699
8.3377288
8.3427039
8.336504
8.1702162
8.1797998
8.2019915
8.2614965
8.1366384
8.1680224
8.0008546
7.988646
7.9903557
7.9903519
7.9886381
8.000864
7.9665347
7.9658603
7.9851511
8.0061589
7.9844737
7.9615816
7.9478302
7.9643314
7.9899558
7.9881485
7.9893655
7.9881994
7.994196
8.005631
7.9885321
7.9860219
8.0009507
7.9921028
7.9921616
8.0010426
7.9859979
7.98828
8.0060849
7.8414166
7.8316427
7.8254413
7.8256754
7.8313787
7.9936716
8.1741974
8.1732224
8.1714279
8.1691631
8.1670555
8.1591279
8.1591318
8.167194
8.168937
8.1719934
8.1727216
8.1749448
8.1754874
8.1761251
8.1688123
8.1577348
8.1118734
8.2303159
8.2760796
8.2633094
8.1381029
8.1641246
8.1699918
8.1678302
8.1428759
8.2641617
8.2086385
8.1431594
8.1401221
8.1017471
8.1681591
8.1637739
8.19572
8.234489
8.3485552
8.3364455
8.3286825
8.3380038
8.3427634
8.337788
8.3350531
8.334726
8.3351142
8.3346056
8.3348465
8.3347517
8.3343156
8.333669
8.3332815
8.3340405
8.333503
8.3336716
8.3339088
8.3339768
8.3338497
8.3336654
8.3342145
8.3343471
8.3361493
8.3390853
8.3283483
8.3335361
8.3337205
8.335032
8.3340041
8.3333832
8.3330863
8.3330418
8.3332864
8.3340402
8.3362193
8.3339545
8.3328266
8.3328582
8.3340185
8.3362044
8.3386353
8.3418123
8.3360815
8.3300213
8.3377099
8.3429501
8.2372554
8.172398
8.1621117
8.2333943
8.1640301
8.1730706
8.0994355
7.9851884
7.9881126
7.9900028
7.9643728
7.9478596
8.0967939
8.1228754
8.1330299
8.1837903
8.1918783
8.2021104
8.1662845
8.0995572
8.1359747
7.9686188
7.9616076
7.9844899
8.0061797
7.9851343
7.9658567
7.9665531
7.812359
7.8362577
7.8261057
7.8251504
7.8251472
7.8261008
7.8362682
7.8123483
7.8073366
7.8213868
7.8439421
7.8209393
7.8017341
7.7997498
7.8185987
7.8287092
7.8253444
7.8239421
7.8231551
7.8317995
7.8409837
7.8266018
7.8238703
7.8402486
7.8349076
7.8348739
7.8402674
7.8239005
7.8264247
7.6804907
7.6913915
7.6851707
7.6789084
7.6790875
7.684952
7.6915054
7.8415516
8.0062139
7.988128
7.9861447
8.0008612
7.9921124
7.9922197
8.0011117
7.9859166
7.9887352
8.0055498
7.9944495
7.9881209
7.9895322
7.8240786
7.8253023
7.8287508
7.8186434
7.7997688
7.8017598
7.8209729
7.8439751
7.8213521
7.8073113
7.6656859
7.6713634
7.6867356
7.6799576
7.6785363
7.6785333
7.6799542
7.6867444
7.6713547
7.6657077
7.6753452
7.6955552
7.6744095
7.6588499
7.662146
7.6796599
7.6816203
7.679045
7.6772074
7.6768552
7.6851403
7.690964
7.6805898
7.6782801
7.6919811
7.6886768
7.6886986
7.6920763
7.6783483
7.5459958
7.5475967
7.5548582
7.5515296
7.5460851
7.5462143
7.5513578
7.5549435
7.5474832
7.5460069
7.6784074
7.824004
7.8401368
7.8349278
7.8349404
7.8402851
7.8238249
7.8268322
7.8408866
7.8320262
7.8230823
7.6767964
7.6773081
7.6790028
7.6816514
7.6797005
7.6621544
7.6588692
7.6744438
7.6955892
7.675313
7.5430169
7.5364758
7.5417793
7.5509676
7.5469088
7.5455846
7.5455813
7.546906
7.550974
7.5417729
7.5364949
7.5430453
7.5598192
7.5414261
7.5289905
7.5346253
7.5498879
7.5477605
7.5459215
7.5442369
7.5441869
7.5512967
7.554426
7.5476166
7.5458873
7.5563424
7.5543958
7.5544447
7.5564815
7.4331723
7.4255227
7.426607
7.4311114
7.4297448
7.4253978
7.4254873
7.4296127
7.4311687
7.4265021
7.4254881
7.4329222
7.5562455
7.6918765
7.6887019
7.6887616
7.6920582
7.6782804
7.6808191
7.6908763
7.6853235
7.551438
7.544142
7.5443059
7.5458818
7.5477812
7.5499219
7.5346281
7.5290051
7.5414595
7.5598522
7.4362389
7.4229308
7.4185054
7.4230269
7.4280217
7.4258165
7.4247976
7.4247941
7.4258138
7.4280257
7.4230226
7.4185221
7.4229549
7.436208
7.4206999
7.4109342
7.4173037
7.4301549
7.4262449
7.4248489
7.4234797
7.4236084
7.4293336
7.4306649
7.4265532
7.4253822
7.4330061
7.4319455
7.4320116
7.3205079
7.321146
7.31571
7.3163624
7.3189331
7.3187843
7.315526
7.3155861
7.3186826
7.3189662
7.3162625
7.3156378
7.3208939
7.3204404
7.4319599
7.5544178
7.5544962
7.5564467
7.5459286
7.5478341
7.5543636
7.4306296
7.4294411
7.4235751
7.4235238
7.4248127
7.4262568
7.4301816
7.4173033
7.4109455
7.4207315
7.3109784
7.3238277
7.3136705
7.3106942
7.3143168
7.3165765
7.3155374
7.314869
7.3148656
7.3155346
7.3165783
7.3143142
7.3107089
7.3136905
7.3237995
7.310949
7.3033942
7.3096975
7.3202938
7.3158122
7.3146478
7.3136
7.3138184
7.318227
7.318465
7.3162416
7.3155437
7.3209634
7.3204318
7.218499
7.2185799
7.2189359
7.2151391
7.2154511
7.2167281
7.2172839
7.2149787
7.2150179
7.2172046
7.2167412
7.2153533
7.2150382
7.2186884
7.2185035
7.2185986
7.3205347
7.4320491
7.4331284
7.4254574
7.4267568
7.3164318
7.3184544
7.3183095
7.3137942
7.3136261
7.3146151
7.315817
7.3203136
7.3096954
7.3034031
7.2049101
7.2106947
7.2212484
7.2137113
7.2117292
7.2144812
7.2150071
7.2146569
7.2143049
7.2143016
7.2146539
7.2150071
7.2144797
7.211742
7.2137276
7.2212229
7.2106678
7.204903
7.2107795
7.2193963
7.2149324
7.2138753
7.2130927
7.2133394
7.2166121
7.2162342
7.2152701
7.2149508
7.2187438
7.1248394
7.1247329
7.1248169
7.1250386
7.1224185
7.1224707
7.1229139
7.1238378
7.1223107
7.1223353
7.1237742
7.1229109
7.1223729
7.1222963
7.1247982
7.1247345
7.1248275
7.1249827
7.2188831
7.3210965
7.3156458
7.2150727
7.2154489
7.2162442
7.2166773
7.2133221
7.2131061
7.2138457
7.2149317
7.21941
7.2107764
7.1193602
7.1140596
7.1184136
7.1270463
7.1216008
7.1202987
7.1222731
7.1217321
7.1217547
7.1216538
7.1216508
7.1217514
7.1217308
7.1222724
7.1203098
7.1216139
7.1270234
7.1183892
7.1140537
7.1193639
7.1262989
7.1221159
7.1210948
7.1205034
7.1207365
7.1230806
7.1223932
7.1222366
7.1222101
7.0361386
7.0379562
7.0379037
7.0379892
7.0381607
7.0363658
7.0362258
7.036154
7.0372293
7.0363082
7.0363227
7.0371767
7.0361382
7.0361266
7.0362283
7.0379286
7.0379032
7.0379924
7.0381015
7.0362843
7.1223461
7.1224059
7.1224197
7.1231341
7.1207244
7.1205081
7.1210676
7.122111
7.1263074
7.0399117
7.0343705
7.0296693
7.0328919
7.0399421
7.0361221
7.0352802
7.0365934
7.0354246
7.0356149
7.0356946
7.0356917
7.0356114
7.0354223
7.0365931
7.0352898
7.0361325
7.0399216
7.0328698
7.0296645
7.0343747
7.0399078
7.0361059
7.0350795
7.0346095
7.0348019
7.0364123
7.0356081
7.0359455
6.9554521
6.9558044
6.9570693
6.9570279
6.9571139
6.9572777
6.9560487
6.9557719
6.9554021
6.9564923
6.9560249
6.9560324
6.956447
6.9553759
6.9556707
6.9559007
6.9570545
6.9570262
6.9571103
6.957215
6.955956
6.9556075
7.0361071
7.0356475
7.0364582
7.0347937
7.0346084
7.0350542
7.0360977
6.9559047
6.9593151
6.9549307
6.9508122
6.9531479
6.9589048
6.9563226
6.9557857
6.9565574
6.9550482
6.9552765
6.9554731
6.9554703
6.9552729
6.9550452
6.9565574
6.9557939
6.9563307
6.9588865
6.9531281
6.9508082
6.9549354
6.9593149
6.9559156
6.9548606
6.9544552
6.9545911
6.9556364
6.9548337
6.8792682
6.8800255
6.8804876
6.881387
6.8813385
6.8814245
6.8815983
6.8807476
6.8803787
6.8798553
6.8808779
6.8807377
6.8807404
6.8808373
6.8798208
6.8802753
6.8805928
6.8813841
6.8813362
6.8814148
6.8815317
6.8806425
6.8801756
6.8793252
6.9548832
6.9556776
6.9545858
6.9544501
6.9548366
6.8796682
6.8807732
6.8837957
6.8803532
6.8767773
6.8784243
6.8831286
6.8814719
6.8811307
6.8814731
6.87981
6.879998
6.8802591
6.8802565
6.8799943
6.8798066
6.8814731
6.8811377
6.8814782
6.8831122
6.8784066
6.8767741
6.8803584
6.8837986
6.8807863
6.8796912
6.8793085
6.8793805
6.8800001
6.8089117
6.8082876
6.8090916
6.8096246
6.8102903
6.8102307
6.8103163
6.8105039
6.8098987
6.809473
6.8088899
6.8097983
6.8098847
6.8098839
6.8097606
6.8088485
6.8093673
6.80974
6.8102986
6.8102285
6.8103011
6.810433
6.8097806
6.8092372
6.8083502
6.8089483
6.8800383
6.8793773
6.8793007
6.8085905
6.8089664
6.8101127
6.8127787
6.8100968
6.8070136
6.8081308
6.8119796
6.8110027
6.810781
6.8107932
6.8090954
6.8091994
6.8094851
6.8094826
6.8091955
6.8090917
6.8107933
6.810787
6.8110076
6.8119652
6.8081152
6.8070113
6.8101027
6.8127845
6.8101276
6.8089889
6.8086002
6.8086067
6.7418145
6.7418917
6.741391
6.7421839
6.7427577
6.7432808
6.7432129
6.7432979
6.743496
6.7430445
6.7425885
6.7420049
6.7427767
6.7430122
6.743009
6.7427407
6.741958
6.7424809
6.742884
6.7432995
6.7432113
6.7432778
6.7434205
6.7429133
6.7423253
6.7414578
6.7419274
6.7418139
6.808605
6.8121364
6.8152414
6.8122233
6.8130571
6.8147598
6.8137287
6.8142658
6.8147161
6.8154296
6.8155018
6.8141414
6.7470972
6.7443047
6.7440707
6.7424122
6.7424115
6.7426934
6.7426911
6.7424078
6.7424087
6.7440712
6.7443102
6.7444633
6.7449344
6.7417799
6.7410781
6.7437296
6.745803
6.7434647
6.7422835
6.7418712
6.6787366
6.6786213
6.6785369
6.6781622
6.6789094
6.6795015
6.6799432
6.6798726
6.6799566
6.6801594
6.679799
6.6793326
6.6787839
6.6794121
6.6797386
6.6797338
6.6793771
6.6787326
6.6792236
6.6796385
6.6799715
6.6798717
6.6799323
6.6800793
6.6796554
6.6790468
6.6782318
6.6785719
6.6786215
6.6787244
6.7418601
6.7422612
6.743448
6.7457945
6.7437225
6.7410791
6.741793
6.7449465
6.7444591
6.6814604
6.6813386
6.6809275
6.6793522
6.6792407
6.6794999
6.6794981
6.6792377
6.6793496
6.6809294
6.6813452
6.6814658
6.6815951
6.6790066
6.6786076
6.6808709
6.6824586
6.6804018
6.6791824
6.6193456
6.6188624
6.6186941
6.6184975
6.6182438
6.618926
6.6195203
6.6199208
6.6198536
6.6199365
6.6201373
6.6198264
6.6193638
6.6188696
6.6193563
6.6197318
6.6197257
6.619322
6.6188149
6.619254
6.6196674
6.6199578
6.6198537
6.6199084
6.6200526
6.6196711
6.6190594
6.6183149
6.6185317
6.6186942
6.6188484
6.6193209
6.6791596
6.6803828
6.6824468
6.6808613
6.6786057
6.6790158
6.6816035
6.6215856
6.6216775
6.6215653
6.6210326
6.6195645
6.6193452
6.6195706
6.6195695
6.6193443
6.6195652
6.6210388
6.6215769
6.6216885
6.6215851
6.6194583
6.619284
6.6212073
6.6224084
6.620598
6.56375
6.562469
6.5619478
6.5617322
6.5614593
6.561318
6.5619259
6.5625105
6.5628962
6.5628382
6.5629199
6.5631123
6.5628233
6.5623743
6.5619443
6.5622962
6.5626909
6.5626839
6.5622623
6.5618871
6.5622644
6.5626669
6.5629409
6.5628394
6.5628884
6.563023
6.5626573
6.5620549
6.5613892
6.561492
6.5617306
6.5619299
6.5624388
6.5637183
6.620575
6.6223909
6.6211918
6.6192753
6.6194594
6.5628202
6.5645687
6.5648138
6.5646963
6.5640858
6.562737
6.5624176
6.5626041
6.5626047
6.562422
6.5627463
6.5641039
6.5647226
6.5648412
6.5645872
6.5628379
6.5628269
6.5644528
6.5653465
6.5109893
6.5095769
6.5082679
6.5077093
6.5074513
6.5071275
6.5070896
6.5076193
6.5081853
6.5085741
6.508531
6.5086113
6.5087892
6.5085028
6.5080744
6.5077126
6.5079371
6.5083306
6.508323
6.5079035
6.5076536
6.5079651
6.50835
6.5086258
6.5085333
6.5085769
6.5086955
6.5083272
6.5077432
6.5071594
6.5071568
6.5074448
6.5076828
6.5082248
6.5095256
6.5109317
6.5653165
6.5644225
6.5628015
6.5089137
6.5088143
6.5102522
6.5105895
6.5104562
6.5098026
6.5085787
6.508168
6.5083157
6.5083205
6.5081849
6.5086084
6.5098497
6.5105189
6.5106573
6.5103145
6.508875
6.5089783
6.5103417
6.4586204
6.4590665
6.4578083
6.4564648
6.4558677
6.4555696
6.4552116
6.4552704
6.4557205
6.4562613
6.456667
6.4566447
6.4567234
6.4568806
6.4565816
6.4561787
6.455886
6.4559881
6.4563667
6.4563588
6.4559549
6.4558261
6.4560709
6.4564331
6.4567251
6.4566482
6.4566865
6.4567829
6.4563978
6.4558391
6.4553371
6.4552348
6.4555527
6.4558231
6.4563931
6.4577149
6.4589492
6.4584789
6.5102768
6.5127451
6.5133928
6.5137267
6.5142358
6.5140165
6.5125203
6.46069
6.4585691
6.4579006
6.456804
6.45631
6.4564237
6.4564374
6.4563547
6.4568793
6.4580128
6.4587142
6.4588863
6.4585026
6.457318
6.4574946
6.4081491
6.4090486
6.4093192
6.4081816
6.4067843
6.4061421
6.4058022
6.4054192
6.4055731
6.4059427
6.4064528
6.40689
6.4068953
6.4069725
6.4071016
6.4067746
6.4064009
6.4061769
6.4061555
6.40651
6.4065019
6.4061227
6.4061166
6.406295
6.4066309
6.4069539
6.4069003
6.4069337
6.4070005
6.4065838
6.4060555
6.4056346
6.4054315
6.4057649
6.4060618
6.4066548
6.4080031
6.4090808
6.4087501
6.4078203
6.4573433
6.457163
6.4583441
6.4587274
6.4089494
6.4087547
6.4080943
6.4071274
6.4065541
6.4066427
6.4066748
6.4066558
6.407296
6.4083402
6.4090696
6.4092957
6.4089113
6.4079368
6.360541
6.3607511
6.3614179
6.3615169
6.3604561
6.3589664
6.3582618
6.3578718
6.3574667
6.3577209
6.3580086
6.3584849
6.3589717
6.3590134
6.3590887
6.3591809
6.3588072
6.3584648
6.3583089
6.3581546
6.3584778
6.3584695
6.3581222
6.3582486
6.3583611
6.3586687
6.3590412
6.3590205
6.3590492
6.3590771
6.3586106
6.3581157
6.3577749
6.3574615
6.3577984
6.3581167
6.3587291
6.3601179
6.3610501
6.3608223
6.3600864
6.3598313
6.4075895
6.4085562
6.3606171
6.3609895
6.3607419
6.3601075
6.3592738
6.3586193
6.3586959
6.3587624
6.3588281
6.3596177
6.3606057
6.361378
6.3616897
6.3613422
6.3156815
6.3150234
6.3151907
6.3155996
6.3155028
6.3144557
6.3128117
6.3120118
6.3115546
6.3111259
6.3114916
6.3116966
6.3121389
6.3126981
6.3127876
6.3128617
6.3129062
6.3124629
6.3121511
6.3120623
6.3117582
6.3120426
6.3120341
6.3117257
6.3120015
6.3120492
6.3123292
6.3127737
6.3127973
6.3128215
6.3127993
6.3122605
6.3117987
6.3115364
6.3110951
6.3114243
6.3117602
6.3123921
6.3138435
6.3146406
6.3144871
6.3139422
6.313686
6.3143173
6.3146418
6.3143194
6.3137226
6.3130245
6.312281
6.3123603
6.3124854
6.3126716
6.3136683
6.314656
6.315511
6.315954
6.272142
6.2719822
6.2714419
6.2715258
6.2716375
6.2712866
6.2701566
6.2682755
6.2673305
6.26678
6.2663253
6.2668133
6.2669414
6.2673566
6.2680103
6.2681597
6.2682338
6.2682207
6.2676865
6.2673991
6.2673715
6.2669021
6.2671392
6.2671304
6.2668688
6.2673091
6.2672978
6.2675561
6.2680934
6.2681711
6.2681909
6.2681088
6.267476
6.2670412
6.2668503
6.2662643
6.2665734
6.2669247
6.2675807
6.2691187
6.269798
6.2697023
6.2693474
6.2691069
6.2696043
6.2698594
6.2694411
6.268883
6.2683149
6.2674736
6.2675673
6.267782
6.2681391
6.2694221
6.2705014
6.271511
6.2297305
6.2306032
6.2305805
6.230137
6.2301105
6.2298874
6.2291727
6.2278025
6.2255933
6.2244422
6.223773
6.2232945
6.2238986
6.2239794
6.2243887
6.2251425
6.2253554
6.2254318
6.2253609
6.2247329
6.2244528
6.2244606
6.223835
6.2240183
6.2240087
6.2237997
6.2243951
6.22435
6.2246033
6.2252361
6.2253691
6.2253844
6.2252404
6.2245102
6.2240834
6.223936
6.2232111
6.2234884
6.2238524
6.224542
6.2261752
6.2267832
6.2267535
6.2265673
6.2263363
6.2267126
6.2268909
6.2263751
6.2258393
6.2253675
6.2244325
6.2245422
6.2248729
6.2254602
6.2271176
6.2284432
6.1891525
6.1909451
6.1920946
6.1921916
6.1918247
6.1917035
6.1911308
6.1898388
6.187936
6.1853088
6.1839022
6.1831102
6.1826139
6.1832767
6.1834088
6.183858
6.184672
6.1849466
6.1850291
6.1849078
6.1842293
6.1839171
6.1838722
6.1831636
6.1833027
6.183292
6.1831248
6.1838015
6.1838102
6.184096
6.1847803
6.1849646
6.1849766
6.1847749
6.1839891
6.1835288
6.1833339
6.1825389
6.1827885
6.1831631
6.1838877
6.18558
6.1862639
6.1863526
6.1862441
6.185951
6.1862128
6.1863328
6.1857725
6.1852088
6.1847198
6.1837395
6.1838576
6.1843055
6.185168
6.1872896
6.1504865
6.1535506
6.1562664
6.1576605
6.1577814
6.1574766
6.1573577
6.15648
6.1542095
6.1511186
6.1479797
6.1463276
6.1454492
6.1449217
6.1454174
6.1459383
6.1464853
6.1471961
6.1476354
6.1477406
6.1474723
6.1468948
6.1464977
6.1460798
6.1455408
6.145692
6.1456796
6.1454972
6.1460021
6.1463855
6.1467534
6.1473227
6.1476592
6.1476828
6.1473247
6.1466346
6.1460877
6.1455243
6.1449124
6.1451902
6.1455748
6.1463045
6.1478836
6.1491223
6.1494099
6.149119
6.1485663
6.1488042
6.1488514
6.1484195
6.1477215
6.1468423
6.146031
6.1461652
6.1466879
6.1478088
6.1135661
6.1166859
6.1226916
6.1272885
6.1284327
6.1283117
6.1280727
6.1282293
6.1275464
6.1233337
6.1173229
6.1137633
6.1120937
6.1112111
6.1105667
6.1102912
6.1121435
6.1128085
6.1130351
6.114037
6.1141251
6.1133162
6.1132563
6.1127522
6.1110355
6.111273
6.1115839
6.1115705
6.111225
6.11095
6.1126324
6.1131072
6.1131811
6.1140657
6.1140632
6.1131514
6.1129784
6.1123309
6.110478
6.1106797
6.1111376
6.1115565
6.1121613
6.1132482
6.1164856
6.1167357
6.115466
6.1145142
6.1152145
6.1147475
6.1147068
6.1138568
6.1117195
6.1116516
6.1118971
6.1124002
6.0861349
6.0863437
6.0887238
6.0977605
6.1055925
6.1055008
6.1051796
6.1049614
6.1053906
6.1059131
6.0984023
6.0894167
6.0866029
6.0859577
6.085044
6.0839008
6.0836637
6.0846393
6.0853314
6.0852585
6.0849435
6.0850534
6.0855757
6.0858111
6.085281
6.0844696
6.0846735
6.0855108
6.085498
6.0846147
6.0843652
6.0851424
6.0856692
6.0854092
6.0849797
6.0849942
6.0853981
6.0855442
6.0848687
6.083898
6.0841329
6.0851242
6.0857707
6.0858242
6.0875442
6.0930922
6.0943199
6.0897579
6.0873514
6.0865976
6.0870712
6.0872507
6.0863321
6.0851073
6.0849121
6.0857024
6.0644007
6.0646685
6.06534
6.0671308
6.0655827
6.0658676
6.066267
6.0660651
6.0661229
6.0660427
6.0678903
6.0656491
6.0645855
6.0637606
6.063173
6.0642215
6.0632246
6.0637864
6.0651918
6.0647283
6.0648473
6.0655185
6.0642645
6.0638979
6.0650559
6.064035
6.0643547
6.0643375
6.0639685
6.0649589
6.0637507
6.0641039
6.0653492
6.0647625
6.0647849
6.0653345
6.0639812
6.0635018
6.0645095
6.063533
6.0640751
6.0648191
6.0656103
6.067723
6.06417
6.0638154
6.0680773
6.0679356
6.0667926
6.0671452
6.0657931
6.0649162
6.0656638
6.064149
6.0617546
6.060942
6.0679212
6.0760668
6.0819365
6.0857903
6.0841073
6.0839823
6.084841
6.0818581
6.0767835
6.0680699
6.0608245
6.0616116
6.067918
6.0765017
6.0855802
6.0918753
6.0854186
6.0640738
6.0635759
6.0852664
6.0919005
6.08504
6.0762703
6.0694647
6.0633607
6.0612191
6.0729453
6.0741914
6.0851526
6.0857364
6.0976657
6.0846711
6.0838076
6.0897285
6.0843399
6.0968039
6.0841179
6.0725629
6.0726682
6.0834709
6.0834007
6.0883672
6.0681477
6.070824
6.0758737
6.0764319
6.0765309
6.0735867
6.0714162
6.0696843
6.0631623
6.0616419
6.0730124
6.0733845
6.0841831
6.0968715
6.0837555
6.0844696
6.0846885
6.0894849
6.0928343
6.0907354
6.1022248
6.0937217
6.0940996
6.0904842
6.0852447
6.0797145
6.0791697
6.0852757
6.0907123
6.0890993
6.102724
6.091301
6.0886664
6.0800577
6.0658689
6.069878
6.0698344
6.0687833
6.0627927
6.0625156
6.0738984
6.0849992
6.0861753
6.0997606
6.08583
6.0741744
6.0853929
6.0897971
6.1183571
6.1183237
6.121586
6.1158883
6.1148636
6.1181122
6.1159324
6.1505102
6.1885123
6.1936293
6.1877425
6.1494937
6.1546594
6.1639575
6.1523312
6.1910927
6.1964241
6.1896081
6.151844
6.1535254
6.191644
6.1923327
6.1541802
6.1196039
6.0903459
6.0977671
6.0960967
6.0923883
6.1042207
6.0956182
6.1257281
6.1366823
6.143065
6.1261125
6.1287519
6.1426347
6.1080166
6.1091565
6.1071789
6.1153271
6.1069854
6.0962991
6.090686
6.1193778
6.1267751
6.1379911
6.1266817
6.1262416
6.1007643
6.0851671
6.0841798
6.0841354
6.0839251
6.0842706
6.0856161
6.1011874
6.1016613
6.1015792
6.1016998
6.1016232
6.1284234
6.1288822
6.1330286
6.1316574
6.0976368
6.0739697
6.0837795
6.0847666
6.0353823
5.9768619
5.9675063
5.967825
5.9774815
6.0360576
6.0482305
6.0818393
6.087307
6.0879296
6.0828375
6.0503796
6.0386395
5.9797168
5.9703704
5.9704047
5.9797726
6.038751
6.0506524
6.0835224
6.0887861
6.088803
6.0932686
6.0833498
6.0715007
6.0619351
6.0620407
6.0683718
6.0696786
6.0696822
6.0683193
6.0619084
6.0617657
6.0712821
6.0831406
6.0930328
6.0880574
6.0876123
6.0820533
6.0477708
6.0349435
5.9734977
5.9631064
5.9622157
5.9723982
6.034198
6.0471202
6.0814819
6.0869722
6.086586
6.0809759
6.0476655
6.0156015
5.988813
5.9107255
5.7507208
5.562385
5.4457766
5.4469338
5.5656466
5.7545072
5.9131855
5.9903537
6.0174388
6.0508566
6.0879973
6.0883848
6.0774031
6.078988
6.0880568
6.0679491
5.9814337
6.0392379
5.9962483
5.9444629
5.7581161
5.6085876
5.4917598
5.3310179
5.2249484
5.1170689
5.0750389
5.0744806
5.1156145
5.222669
5.3269918
5.4869806
5.6043492
5.7528541
5.4880008
5.3523406
5.1703643
5.0507177
4.9227771
4.873366
4.8739146
4.9244463
5.0534497
5.174427
5.3577296
5.4928547
5.3350615
5.5744393
5.8195471
5.8956347
5.880363
5.9724264
5.9726188
6.0680165
6.0880632
6.0789948
6.0774761
6.0884456
6.0880579
6.0395765
5.9817993
5.8961972
5.8804259
5.7876642
5.7874467
5.4612172
5.1262611
5.2314572
5.0594656
5.177715
5.0116108
4.8554084
4.7182767
4.6479026
4.6475602
4.7162247
4.8519051
5.0074578
5.1715985
5.3293581
5.5676666
5.2251509
5.0524056
4.8529833
4.6490458
4.4840997
4.3951741
4.3954701
4.4857366
4.6527038
4.8582374
4.7230591
4.9326335
4.8833625
5.0844752
5.0840821
5.4612237
5.1250803
4.9319701
4.8829268
4.6534757
4.6542007
4.3989904
4.4880212
4.2967942
4.1911504
4.1908577
4.2955388
4.4847947
4.7177802
4.9251167
5.119102
5.4525454
5.0776642
4.8754216
4.6484663
4.3951226
4.190759
4.077575
4.07776
4.1923329
4.1915895
4.3984748
4.4867397
4.721501
4.8566864
5.0585276
5.2306343
5.5751544
5.8202661
5.9452428
5.9966567
6.0180089
6.0512015
6.0836141
6.07739
6.0616069
5.9911145
5.9148273
5.7600812
5.4945984
5.3347069
5.1775893
5.0107835
4.85432
4.6503536
4.4837526
4.2944318
4.1890387
4.0767634
4.0762988
4.1896376
4.3947473
4.6478953
4.8755986
5.0777427
5.4532885
5.1189504
4.9248518
4.7163998
4.4828321
4.2928902
4.1882905
4.3932303
4.3934032
4.6468317
4.7165261
4.9257795
5.0548071
5.1755521
5.359559
5.4936727
5.6096641
5.7587609
5.5713942
5.331902
5.2263508
5.118646
5.0768056
4.8754864
4.8754165
4.646193
4.7157194
4.4820816
4.6477597
4.8519601
5.0523921
5.2255053
5.5692825
5.3307061
5.172647
5.0073191
4.8517184
5.0529363
4.9245962
5.1180192
5.0763918
5.4549055
5.4551508
5.7832906
5.8164399
5.9438593
5.9903097
6.0170654
6.0772583
6.0851873
6.0911169
6.0853654
6.0112834
5.9947857
5.8699774
5.8583585
5.8583432
5.8697238
5.9946548
6.0112029
6.0841141
6.0828436
6.0761363
6.0841308
6.0759178
6.0151178
5.9925977
5.8882758
5.8713123
5.8699174
5.8863169
5.9911973
6.0136843
6.0747499
6.0829945
6.0746955
6.0583151
5.9864283
5.9377853
5.8083251
5.7738805
5.7754607
5.8106042
5.94002
5.9882241
6.0599013
6.0715772
6.0840928
6.0091329
5.9920018
5.8638587
5.8516186
5.8499873
5.8618455
5.9906115
6.0078019
6.0828226
6.089023
6.1055582
6.0828911
6.0701017
5.9943977
6.0138689
5.9559524
5.817241
5.855299
5.7913012
5.4702218
5.5832949
5.7657317
5.9252039
5.9968706
6.0101864
6.0165177
5.9933352
5.9938012
5.9415511
5.8170744
5.8937409
5.8780938
5.7839829
5.7849305
5.8785541
5.8946293
5.8183173
5.943275
5.7561808
5.606988
5.4902916
5.3295584
5.2251442
5.5698663
5.7566869
5.9135738
5.990094
6.0163961
5.9947697
5.9940691
5.8708208
5.8591379
5.8586834
5.8701603
5.8644364
5.8259377
5.9594512
5.7682209
5.5952065
5.5208488
5.4743731
5.4472164
5.4932226
5.356501
5.4942376
5.4475119
5.36962
5.1388136
5.2118007
5.3065245
5.2210644
5.1421787
5.1335143
5.0574005
5.0503453
5.1566934
5.0007589
5.1580605
5.3092678
5.5891521
5.2132387
5.1352176
5.1394756
5.0589506
5.1431942
5.223464
5.0520328
4.9121675
5.1000249
5.4777031
5.801058
5.8020004
5.8648559
5.8267875
5.9606528
6.016813
6.0104562
5.9973723
5.9268046
5.7702373
5.5898433
5.4782405
5.0661349
5.065995
4.9581266
4.9854173
4.9096654
4.8953544
4.8620768
4.8680116
4.6405217
4.7096988
4.8471193
4.8440566
4.997917
4.8433923
4.8458593
4.6359473
4.6222406
4.449185
4.7034415
4.8937429
4.9833366
5.0960651
5.0626294
4.9560022
4.9072656
4.859883
4.8658623
4.9096655
4.7079705
4.6395911
4.6341512
4.3571209
4.3768049
4.4671896
4.2742921
4.4680666
4.4494063
4.7045961
4.6349715
4.3568911
4.3766827
4.1673373
4.1394819
4.2489799
4.1402372
4.1672675
4.0516352
4.0208241
3.9875804
4.1104309
4.3347151
4.6313074
4.7011935
4.8439885
5.0015462
4.9915252
4.8254413
4.5907225
4.8267601
4.8445692
4.6069356
4.4288183
4.4074985
4.6842293
4.6092797
4.3106984
4.2900147
4.6187598
4.8908223
5.530135
5.6440775
5.8134717
5.9632805
5.946811
5.8036613
5.6340107
5.5291833
5.5308198
5.8572291
5.7929413
5.8191934
5.9578988
6.0151667
5.9956709
5.9268163
5.768821
5.5862063
5.4712461
5.0631846
4.9563655
4.9077845
4.9835048
5.0973497
4.9112065
4.8664221
4.8603319
4.8941339
5.0599515
5.1439917
5.2229666
5.3100065
5.214073
5.1355026
5.1404693
5.1599697
5.0526705
4.8491457
4.7100345
4.6397851
4.6342847
4.7048044
4.4501454
4.3568703
4.377001
4.4686085
4.6392518
4.62517
4.8455238
5.0006546
5.0038991
4.8516427
4.8477599
4.7081973
4.4520541
4.2503331
4.1401115
4.1675296
4.2751997
4.1687183
4.0516683
4.0206527
4.1404151
4.359508
4.3799767
4.4706854
4.7137802
4.6452582
4.6386971
4.8687263
4.9019261
5.0648444
5.1449698
5.3741469
5.4514941
5.4974304
5.5991388
5.7707573
5.5242568
5.4778633
5.4511543
5.4987701
5.3610943
5.1634324
5.3146771
5.5917826
5.2178308
5.1400192
5.1480114
5.2294393
5.0581081
4.9186667
5.1067696
5.480886
4.9910591
4.915439
4.9628428
5.0723011
4.8747975
4.8744923
4.6441811
4.3796717
4.1678127
4.0507039
4.0502098
4.1661026
4.3764402
4.6398016
4.8683018
4.8623396
4.9578161
4.9093353
4.9844378
5.0995404
4.9117241
4.8947672
5.0584106
5.1428208
5.2235022
5.0514987
5.1581574
5.3096942
5.2122588
5.1338279
5.1382956
4.996073
4.8423025
4.7030577
4.6341209
4.3557475
4.4469827
4.4656758
4.707954
4.8454885
4.6341236
4.6196952
4.8407901
4.8446878
4.9995151
5.1583526
5.1723689
5.3552726
5.4910036
5.4967848
5.4492255
5.4751507
5.3708371
5.3584463
5.496214
5.7687765
5.5972778
5.5211674
5.4480494
5.2114812
5.1387367
5.1330786
5.0573177
5.0514411
5.2231287
5.5867223
5.3086288
5.1409556
4.9820478
4.8930797
4.7005358
4.4454229
4.2463676
4.1380799
4.0191622
4.1368233
4.164437
4.2712191
4.4645174
4.3741968
4.3526648
4.630405
4.6368012
4.706254
4.9102814
4.8667987
4.859666
4.9058348
4.9536679
5.4742645
5.0980079
5.0640261
5.0643671
4.8668645
4.6374093
4.3743949
4.1651221
4.1367125
4.0195513
4.1395297
4.2470365
4.2725571
4.4692436
4.4495413
4.3582786
4.6373239
4.7061968
4.7120784
4.8493481
4.636172
4.4660506
4.4461443
4.3527519
4.630317
4.7007328
4.7069029
4.8468982
4.8420936
4.6210226
4.8445899
4.9977624
5.0020825
5.1622311
5.0567732
4.9177683
4.9002321
4.867405
4.9136853
4.9617492
5.4806771
5.0716865
5.1052166
4.9887917
5.1463362
5.0623262
5.1370729
5.14171
5.2147418
5.59162
5.228108
5.3132493
5.499789
5.3620844
5.1600005
5.0530589
4.9112712
4.893284
4.8596293
4.9058033
4.9537293
5.4744061
5.0985313
4.9814878
5.1423094
5.0586389
5.1337012
5.1392229
5.2117164
5.5877289
5.2239502
5.3103285
5.4990334
5.7700674
5.4507533
5.3738841
5.4769944
5.4510613
5.7714693
5.5996874
5.5232272
5.9272387
5.9483975
5.8081264
5.6407713
5.5381827
5.5384913
5.6414462
5.8081948
5.9481872
5.8062076
5.6366551
5.6460897
5.5311608
4.8913106
5.1335713
5.1382936
5.6784962
5.8839679
6.1199331
6.1420438
6.1269692
6.11866
6.0903478
6.0966748
6.094402
6.1244832
6.1201698
6.1194321
6.1210388
6.1163439
6.1256423
6.13608
6.1420068
6.1080931
6.1075528
6.0812979
6.0808354
6.1195626
6.1468445
6.1534988
6.1413876
6.1535733
6.1149851
6.0911609
6.0814196
6.0723841
6.0957321
6.1045668
6.1085396
6.1440988
6.1435879
6.1072917
6.0821241
6.0654495
6.0655057
6.0821065
6.0741908
6.0742679
6.0980927
6.0980264
6.1329545
6.128758
6.1284022
6.1316726
6.0977087
6.0741315
6.0838117
6.0848397
6.0912563
6.0815971
6.0727434
6.0698943
6.0764796
6.0852192
6.0926581
6.0874826
6.0670143
6.0670917
6.0877538
6.0932164
6.0860919
6.0768482
6.0683355
6.0620585
6.0611073
6.0681782
6.0768718
6.0833743
6.0883973
6.0878269
6.0877453
6.0881178
6.0828613
6.0761503
6.0677572
6.0613088
6.0635932
6.0742151
6.0729564
6.0837981
6.0846546
6.0857259
6.0976051
6.0851988
6.1158715
6.119702
6.1269852
6.1266389
6.1578777
6.1599348
6.1606281
6.1607738
6.1599987
6.1574994
6.1933543
6.2325306
6.2742598
6.2803986
6.274955
6.2713917
6.2289266
6.2343904
6.2283857
6.2710416
6.2768333
6.2880144
6.2742708
6.2317811
6.2371473
6.2301309
6.2727799
6.2747334
6.2321872
6.2328565
6.2753227
6.2887942
6.2861921
6.2795203
6.3013668
6.2583193
6.2454954
6.2041908
6.2162378
6.1750935
6.1576026
6.1633336
6.2027841
6.2051151
6.165418
6.1833029
6.1828392
6.2252512
6.2268333
6.2712977
6.2462997
6.2437819
6.2685417
6.3126402
6.316498
6.3252852
6.3400357
6.3322209
6.3095726
6.2882706
6.245915
6.2328728
6.1927464
6.1547896
6.1649193
6.2048467
6.2172989
6.1987162