/*--------------------------------*- C++ -*----------------------------------*\
  =========                 |
  \\      /  F ield         | OpenFOAM: The Open Source CFD Toolbox
   \\    /   O peration     | Website:  https://openfoam.org
    \\  /    A nd           | Version:  7
     \\/     M anipulation  |
\*---------------------------------------------------------------------------*/
FoamFile
{
    version     2.0;
    format      ascii;
    class       surfaceScalarField;
    location    "470";
    object      phi;
}
// * * * * * * * * * * * * * * * * * * * * * * * * * * * * * * * * * * * * * //

dimensions      [1 0 -1 0 0 0 0];

internalField   nonuniform List<scalar> 
76009
(
0.0018392745
1.4785974
-1.480284
-2.0328338
2.0329364
-36.227931
2.0781387
-2.0799015
-2.0793194
2.0770018
-34.809962
0.00029969812
0.0016889041
2.0329642
1.478661
-1.4802371
-2.0328014
-36.227865
2.077048
2.0781892
-2.0798322
-2.0792288
0.00021462664
-34.809765
-0.0028078967
-9.3255561
-0.0027424075
-0.3831472
0.37476931
0.36806632
-0.39125042
0.36808206
0.3747993
-0.38312993
-0.39124383
-0.012508667
-7.6963774
0.066382313
-7.4068058
0.012571475
-0.012742551
-0.012707285
-10.341877
0.0054265308
-0.054942473
-9.6924054
-0.0053866961
0.38343931
0.37872411
-0.37541176
-0.38016118
0.38345153
-0.38015281
-0.37540911
0.37872785
-9.3279508
7.6964016
-0.054907145
-9.6924222
0.066460049
0.37065392
-0.37688653
0.52402076
-0.53755643
-8.2569316
-0.0017061102
-0.00010823741
-0.5786107
-0.020062407
0.023915202
-0.02494362
0.032544179
-0.00030654923
-0.56493442
0.032734756
-0.02518573
-0.025306235
0.032624822
-0.011026117
-0.0077110273
-2.4810732
0.09879799
0.13271728
-0.12915912
-0.096135921
0.0036047183
-2.6368658
0.094988183
-0.092191112
-0.12661791
0.1282574
-0.13028239
-2.3428354
0.0024626318
-0.47562402
0.0020461474
-0.0016422989
-0.0014081981
0.00065837632
-0.57544865
-0.0318905
-0.02348563
0.023775864
0.032335631
-0.52701824
0.0016261359
-0.00066251215
0.00042873037
-0.65441997
-0.0015236007
-0.00041631915
-0.66419724
0.4806176
-0.62367746
0.0097292925
0.0062963385
0.0047546019
-0.13147123
-0.51097391
-0.023260163
0.023555679
0.032692068
-0.032745918
-0.001714724
-0.13248347
-0.10176529
0.098027595
-0.10176168
-0.13247577
-2.3805563
0.0020796701
0.13654125
0.13360849
-0.13103275
-0.13368603
-2.5352063
0.13607444
-0.13333903
-0.12901373
0.13156657
-2.4760484
4.7671643e-05
-7.9105055e-05
0.0016566667
-0.53354082
-0.0006566452
-0.00080345491
0.0016921949
-0.53492891
0.0016490358
-0.53165966
8.7987917e-05
-0.54549123
-4.8524184e-05
0.032311573
0.032355024
-0.031921165
-0.031914547
3.4154183e-06
-0.54628512
0.032387684
-0.031913969
-0.031930517
0.032352329
-0.54742212
-0.032091926
0.032543131
0.032386744
-0.031913877
0.0028081901
-0.00030254301
0.00010907856
0.032737493
0.032628212
-0.025300668
-0.025181197
-0.56492068
-0.00056354062
-0.65889195
-0.0029305506
-0.00012516483
-0.66612277
-0.00013127417
0.032628665
0.032591364
-0.025381512
-0.025309681
-0.56391578
0.0029966304
-1.0601034e-05
-0.025378358
0.032592467
0.032553588
-0.025375233
-0.56300099
0.00057070658
-0.6645791
0.52518707
-0.0030171986
-0.65062773
1.4827645e-05
0.001622062
1.6856532e-05
-0.5436607
1.6684863e-05
-0.031895348
0.03229861
0.032274934
-0.031881142
-0.56107166
1.5523776e-05
-0.025353565
0.032540186
0.032518521
-0.025337502
0.0046547658
3.197108e-05
-0.57238437
1.2634418e-05
0.0066133407
-0.12871494
0.00065006693
-0.51792112
1.3034327e-05
-0.500209
0.0024263148
-2.0269651
-0.10832899
0.13311473
-0.10484227
4.1011049e-05
0.0017495147
-7.7911184
0.519676
-0.54581349
-0.52577365
9.7814926e-05
-8.2568742
-0.37686147
0.37067722
0.524035
-0.53753059
0.012422314
0.54775829
0.38614592
-0.37565042
-0.52890716
-10.433418
0.55319815
7.7966272e-05
-0.53188653
-0.51398456
0.53644145
-9.9017714
-0.0068587147
0.020280481
2.6815944
-2.1402752
-0.001542874
-0.013347317
2.6566839
-2.1178041
0.015367081
2.6261063
0.0064205648
-1.8762889
1.8142459
0.021716087
0.030135632
0.042710696
0.035908456
-2.1038375
-0.08498202
-0.0029809958
0.12978868
0.096586135
-0.10469438
0.040364943
-0.0033330113
0.63388595
0.021515202
-2.3268374
-0.0074473466
0.61574275
0.53947408
0.62211068
0.077658768
-0.098059089
-0.13416345
0.096484762
0.084331941
0.47526479
-0.0045004892
-0.0061923134
-2.0377543
0.094768171
0.12576887
-0.1187938
0.081482394
-2.1869375
-0.1904164
-1.9495457
0.0027351062
0.14501774
-0.0047949695
0.00099050989
-0.14290466
-2.1782483
-0.0066683195
-2.6302272
0.0050083511
-0.0024668066
-2.6559211
2.3144166
0.095909425
0.13055873
-0.12959162
-0.095164108
0.00042010981
-2.3105503
0.0015207951
0.13179854
0.096393527
-0.094784651
-0.12924679
2.2163344
-2.2004498
2.4241751e-05
-0.12989931
0.13276449
0.13213162
-0.12910437
0.62856407
-0.064469037
-0.0018084655
0.63333355
0.54547732
0.54224493
0.098757842
-0.13600099
-0.13516922
0.097957072
0.1053898
-0.0018653732
0.5232523
0.0054524512
-0.0036651116
-2.0661532
-0.10878032
0.13352516
0.13071325
0.0018256505
0.06188509
3.0899498e-05
-2.6128291
0.6324278
0.54155667
0.53922558
0.61775335
3.4839449e-05
0.097954146
-0.13486375
-0.13468229
0.097656248
-2.196986
0.0010740515
-0.0040078491
0.52628384
0.00074877193
0.52769504
-0.0039331371
-0.00031252081
-0.0045000459
-8.9999634e-05
-0.00088966629
-0.004349248
-0.002390327
-0.51993216
-0.003198473
3.1524382e-05
-0.51577003
0.0098949362
0.0079980267
-0.0030741284
-0.02024745
0.0032557148
0.57475808
-0.037831035
-0.0037828049
0.57859983
0.0034190139
-0.00056430196
0.023918112
-0.020058845
-0.024939753
0.03254644
-0.023753052
-0.11762148
0.00057653409
0.1643661
0.00035000777
-0.020322977
0.032747527
-0.029818978
-0.010756835
-0.63276283
-0.15566802
-0.0011064544
-0.001228831
0.1537194
0.15580951
0.13477333
-0.0070763046
-0.022776616
0.018952939
0.023174264
-0.028201944
-0.0030593433
-0.57756423
0.12943874
-0.00064904704
-0.0011165034
0.16270343
-0.00021666316
7.4949629e-05
0.00012452773
0.13077177
-0.00010017042
1.6796408e-05
0.11834276
-0.00059792157
0.00020085887
0.00041799796
-0.00010244696
0.0001006955
0.00011768341
-0.14563437
-0.00018031551
-6.0696101e-05
-0.13142531
8.3474925e-05
-2.0321517e-05
-0.16404488
-0.00070394425
-0.14538783
-0.00034801003
-1.9017035e-05
-0.00036378397
-0.14386544
-0.0012505569
-0.00012471458
-0.13064469
-0.00066643763
-0.00063612905
-0.0052468636
-0.0094073526
-0.00096993955
0.00011426204
0.14492217
0.00030588819
-0.1542161
-0.00053357783
0.028502412
0.13137723
8.0512307e-06
-0.1650203
0.49521916
0.033001367
0.032225161
-0.032341298
-0.035095272
-0.57702884
0.032572267
-0.03242505
0.031914257
-0.032275173
0.031469092
-0.13145812
-0.00014051967
-0.0001116215
-3.8467136e-05
-0.00054439123
-0.16400425
0.14538163
-0.00043297469
-0.14528924
-4.589641e-05
-0.00021959044
-9.0410974e-05
0.00015712059
-0.14474339
-0.00021571007
-0.00011114087
-0.12996112
-7.8708102e-05
-7.853416e-05
-0.16211207
-0.00059007943
-0.14487176
-0.00031199112
-7.1147128e-05
0.001155849
-0.00020224582
-0.14549389
-0.00030420911
-2.726845e-05
-0.00039567212
-6.6100574e-05
-0.00068776191
-0.13052459
-0.00025232334
0.00013113283
-0.00071081782
-0.16227815
-0.00029926893
-0.14470127
-5.6324824e-05
-2.9749752e-05
-0.14371862
0.14387205
-3.1266912e-05
-0.0003916845
0.032631494
-0.16274385
-0.00038104667
0.12975283
0.035102285
-0.59560991
-0.032631659
0.032531648
0.52671885
0.024236621
-0.024789677
-0.024789131
0.02423653
0.032530661
0.010765033
-0.57703227
0.032225349
0.033003096
-0.028502232
-0.032342303
-0.63276898
-0.020322326
0.023755245
0.032748342
-0.029819632
-0.00014071472
-0.56393272
0.032625137
-0.025315738
-0.025389473
0.032586098
-2.5135681e-05
-0.56301976
0.032587333
-0.025386651
-0.025386249
0.032545574
-0.56109145
0.032532685
-0.025364652
-0.025351863
0.032507267
-2.4449231e-06
4.6292881e-05
0.0065761088
-3.4516626e-06
0.0046845682
-0.57239497
0.00025027447
0.0067090463
0.004643538
-0.57457633
0.00070428549
0.0045174992
-0.5759167
0.0070124683
0.00056704971
0.0043622016
-0.57659658
0.0074371953
-0.0098953533
0.0032083294
-0.57476544
0.0034088184
-0.12577101
-2.4237908e-05
-0.51577477
0.0079894756
-0.035886814
-2.0377626
-0.084329095
0.094774852
-0.1187949
0.081457968
-1.814257
0.042727948
0.030119896
0.021722867
-2.6261162
-0.02151519
-2.1869418
-0.19042958
0.63389193
-0.040340554
-2.3268451
-0.0074625389
0.62211814
0.53947689
0.61574598
0.077654252
-0.098063135
-0.13416976
0.096478739
0.084991262
-0.0061920896
0.47527001
-0.004506353
-2.1038605
-0.0029715057
-0.10470458
0.12978288
0.096578684
-2.6567009
-0.0033336817
-0.013350678
-0.54774201
0.015348034
-2.1178118
0.0068555901
-0.38612937
-1.8762937
0.0064077293
-0.37566654
-0.52892447
0.012434454
-10.433455
0.0047848144
-0.0066663151
-2.6302316
1.9495477
0.00098883402
-2.1782494
-0.14291141
0.0027326952
0.14500884
-2.3144191
0.0015079857
0.096390826
-0.094787126
-0.12925082
0.13179386
-0.0049936207
-2.3105508
0.00041149747
0.095907453
-0.095165905
-0.12959432
0.13055542
-0.002469132
-2.6559271
0.53191068
-2.6831183
0.0024375312
2.1402832
0.0060177855
7.7912093
-9.9018232
-0.5140156
0.53640576
0.55317395
7.5539912e-05
0.51964884
-0.54585362
0.5001695
-0.525828
0.00010156514
-2.0661819
-0.10540289
0.13070507
0.13351366
-0.10879791
-0.0024326304
0.064430167
-2.6816149
0.0018154709
0.62857393
0.63334314
0.54224673
0.54548158
-2.2163409
-0.0018404279
-0.13600741
0.098750575
0.097942872
-0.1351825
0.0054545773
0.52326139
-0.0018690464
-0.0036758752
0.51993987
-0.0032638186
-0.0023926194
0.00089011487
0.00031019787
-0.52770592
-9.6388029e-05
-0.0039476915
-0.0010820403
0.00090436285
-0.00084930589
-0.037672723
0.0037873699
-0.037673877
0.0030754582
-0.037840457
-0.020254593
0.11750607
0.50176613
0.0072406946
0.0087266799
-0.65549417
-2.2127038
-0.11750727
0.12603232
0.091472202
-0.10245624
0.091473127
0.12603696
-0.10245723
0.10984965
0.096434418
0.10984965
-0.096278064
-0.097988859
0.096436169
-0.097986967
-0.096277192
-2.6175886
0.65549166
0.0030411628
-0.4714241
0.00039969509
0.501763
0.0087301907
0.0072437522
-0.0040457884
-0.51543622
-0.020950553
0.027465323
-0.030601064
0.031599549
0.018320542
-0.0050221222
-0.050068533
-0.55407161
0.15883766
0.156073
0.13516067
0.15520455
-0.012024661
-0.0021287697
0.023155468
0.018825956
-0.024669231
-0.033544306
-0.57991246
0.1185969
-0.0013174081
-0.0021689957
-0.00013408871
0.00012894682
-0.13041249
-0.00015122054
-0.00061221436
-0.00223006
-0.0016287835
0.0012165285
0.14316587
-0.0013469646
-0.010104818
0.12963211
-0.0059810937
3.2354651e-05
-0.00094990081
-0.0013326053
-0.00032166845
-7.3075794e-05
-0.14365158
-0.0011569367
-0.00016963751
-0.032529685
-0.13044531
-0.00079183259
-0.018317477
0.032529046
-0.029820384
-0.025259559
0.024201487
-0.56227716
-0.029819088
-0.02525834
0.024202426
0.0040515098
-0.020951423
0.027465319
0.031598576
-0.030602614
-0.51543799
0.0070750973
0.15567097
0.15581162
0.13477513
0.15372275
-0.0030659999
-0.57756974
-0.022778775
0.018950973
-0.028204963
0.023171941
0.11762385
-0.0012311472
-0.0011064615
0.00034720351
0.00057715193
-0.0002017561
0.0011592528
-0.14549644
-0.00030721415
-2.8917067e-05
0.0006903285
-0.1305262
-0.00025508406
0.00066982006
0.00039554982
-0.13137918
-0.13064712
0.00036402452
-0.00063648101
-0.0052497947
0.00065194961
0.14386873
-0.009410858
-0.00097117549
0.12944194
-0.001117315
-0.00022010313
7.5004e-05
-0.0012540777
-0.00012525508
-0.14492511
-6.717709e-05
0.00011506807
0.00030310579
-0.00053557431
-0.15421856
6.046487e-06
-0.16502219
0.00012992409
-0.00071278612
-0.16227959
-0.0003015688
-5.869864e-05
-0.14470314
-2.8284629e-05
0.14387406
-0.0003931339
-3.4164351e-05
-0.14372004
0.12975396
-0.00038190003
-0.16274479
0.16224194
-6.8667269e-06
-0.00020455505
0.03249785
0.12948107
-0.00019014895
-0.00014061449
0.032263062
0.024142483
-0.024608813
-0.032499779
0.032259183
-0.024609694
0.024140416
-0.0014034472
2.0770686
-2.079228
-2.0797403
2.0783415
-34.809763
1.4788021
2.0330962
-2.0327283
-1.4801513
-36.22781
-0.53031925
-10.42298
-0.36947296
0.37484916
0.058454121
0.0020090938
0.13655253
-0.13367995
-0.13101546
0.13363272
-0.0035359457
-2.5352301
0.13156433
0.13609079
-0.1333267
-0.12901668
-2.4760565
0.00068311154
-0.52518857
0.001626593
-0.0017107077
-0.00011598629
-0.54629414
2.6313703e-05
0.032396352
0.032357204
-0.03192735
-0.031907177
4.944298e-05
-0.53493572
-0.00078262942
-0.53354501
0.0016689639
0.00054729023
-0.0029867491
0.00015172993
-0.66458398
-0.0030136246
-0.65062951
0.54366282
4.0535115e-05
-0.56107385
0.032517383
0.032544007
-0.025350724
-0.025338272
8.0440486e-05
-0.031882526
0.03227376
0.0323032
-0.031891494
-0.54549712
0.032313726
-0.03191348
-0.031915511
0.032362118
0.00015805353
-0.5630069
0.032555071
0.032598338
-0.025373904
-0.025373995
0.0029155831
0.00032500629
-0.56392511
0.032635938
0.032595111
-0.025378527
-0.025304087
0.00058251589
-0.66613087
0.53166815
-0.0027896822
-0.00040938067
-0.65890203
0.0016715259
-0.0016052881
-0.54743328
0.032552509
0.032393393
-0.031909274
-0.032084662
-0.00064085221
0.00012675476
-0.56493229
0.032745471
0.032633546
-0.025296442
-0.025174993
0.0015026249
0.032552835
0.57546216
-0.024934694
-0.02005228
0.023926606
-0.57861327
-0.0097172288
0.12914725
0.5270281
-0.65443188
-0.00065022167
-2.6369022
0.13273653
-0.096115321
0.098825986
0.011063851
6.0303162e-05
-0.0020889427
1.4954798e-05
-3.5761509e-05
0.00012256605
-0.0025469494
1.9186427e-05
-3.9951128e-05
0.00019072552
-0.0029190159
2.244928e-05
-4.3670447e-05
0.00026976912
-0.0032940096
2.5228064e-05
-4.7803418e-05
-0.054810944
0.00050417943
-0.00046579218
-0.0001693528
-0.00023159546
-0.054869386
0.00030509732
-0.00020060586
0.00018554633
-0.00016330363
-0.0033575376
1.7863993e-05
-2.2627713e-05
-0.0001012386
-0.0029765615
1.6481249e-05
-2.1000573e-05
-4.5932369e-05
-0.0025980686
1.528112e-05
-1.9467923e-05
-0.0021313164
1.394448e-05
-1.7503201e-05
2.02142e-05
-0.0021490724
3.1790886e-06
-5.637309e-06
4.1378888e-05
-0.0026168597
3.8980893e-06
-6.2717263e-06
6.4597277e-05
-0.0029973532
4.2831307e-06
-6.7098263e-06
9.0836934e-05
-0.0033812279
4.6284828e-06
-7.1778705e-06
-0.05513584
0.00010799968
-6.4245881e-05
0.00031353716
-3.676008e-05
-0.055471598
7.0146504e-05
-2.3472065e-05
0.00032584309
-2.6261632e-05
-0.0033918572
3.1667751e-06
-3.0359972e-06
-1.666568e-05
-0.0030069966
2.9503897e-06
-2.9030566e-06
-7.8867246e-06
-0.0026256338
2.8104904e-06
-2.8154218e-06
-0.0021569385
2.7574838e-06
-2.7781526e-06
3.4538119e-06
-0.0021602658
1.501711e-06
-1.6282822e-06
6.667618e-06
-0.0026288302
1.6479148e-06
-1.6653677e-06
9.8675213e-06
-0.0030102728
1.780087e-06
-1.7038053e-06
1.3212792e-05
-0.0033953856
1.9425915e-06
-1.7594954e-06
-0.055756942
4.841584e-05
-1.2418232e-05
0.00026255965
-7.4874373e-06
-0.055952448
3.8979983e-05
-1.0827065e-05
0.00017484017
-5.7645758e-06
-0.0033973641
1.7914888e-06
-1.5357163e-06
-3.9867613e-06
-0.0030122222
1.6542058e-06
-1.4825513e-06
-2.0942352e-06
-0.002630827
1.5431401e-06
-1.4388334e-06
-0.0021624228
1.4564681e-06
-1.3937022e-06
1.8412706e-06
-0.0021642432
1.179363e-06
-1.1998848e-06
3.3739739e-06
-0.0026323877
1.299339e-06
-1.2712086e-06
4.7372991e-06
-0.0030136642
1.4062913e-06
-1.3275407e-06
6.0211232e-06
-0.0033987843
1.5234277e-06
-1.3871233e-06
-0.056066908
3.0341384e-05
-1.0269474e-05
0.00010040904
-5.6637956e-06
-0.05612674
2.356583e-05
-9.2810713e-06
5.1211147e-05
-4.4641006e-06
-0.0034000606
1.2916283e-06
-1.2151209e-06
-3.1867013e-06
-0.0030149811
1.196343e-06
-1.1569093e-06
-1.7431213e-06
-0.002633838
1.1072286e-06
-1.1006465e-06
-0.0021659668
1.0111709e-06
-1.0307032e-06
1.6890534e-06
-0.0021676194
8.1672648e-07
-8.5324841e-07
3.0556072e-06
-0.0026351892
9.030587e-07
-9.1845944e-07
4.2488628e-06
-0.0030161834
9.7863616e-07
-9.6965488e-07
5.3598853e-06
-0.0034012063
1.0561329e-06
-1.0214421e-06
-0.056156193
1.8319894e-05
-7.9485659e-06
2.4441456e-05
-5.1223647e-06
-0.056170969
1.4521742e-05
-6.6284511e-06
1.2005587e-05
-4.0760978e-06
-0.0034022668
8.5887965e-07
-8.4453446e-07
-2.9465931e-06
-0.0030173073
7.9509945e-07
-8.006084e-07
-1.6413311e-06
-0.0026364692
7.3190817e-07
-7.5704574e-07
-0.0021692191
6.5993734e-07
-7.0159545e-07
1.5998601e-06
-0.0021707723
5.2949904e-07
-5.7605905e-07
2.8546427e-06
-0.002637692
5.905746e-07
-6.2254189e-07
3.9232863e-06
-0.0030183615
6.4445981e-07
-6.5893785e-07
4.902302e-06
-0.0034032486
6.9811558e-07
-6.9534385e-07
-0.056179318
1.1745574e-05
-5.4743635e-06
6.9794687e-06
-4.7310225e-06
-0.056184907
9.6792346e-06
-4.5247308e-06
5.1653289e-06
-3.8031641e-06
-0.0034041727
5.7067324e-07
-5.7439777e-07
-2.782096e-06
-0.0030193631
5.2475911e-07
-5.4414087e-07
-1.5677319e-06
-0.0026388705
4.7800916e-07
-5.1379769e-07
-0.0021722909
4.2526727e-07
-4.7435033e-07
1.5428398e-06
-0.0021737831
3.4075052e-07
-3.9126424e-07
2.7223211e-06
-0.0026400116
3.8617852e-07
-4.2451598e-07
3.7073951e-06
-0.0030203254
4.2692257e-07
-4.4970216e-07
4.5924575e-06
-0.0034050502
4.667285e-07
-4.7434313e-07
-0.056189216
8.0317804e-06
-3.7215713e-06
4.5916201e-06
-4.4903467e-06
-0.056192809
6.6179581e-06
-3.0247157e-06
4.4899088e-06
-3.636329e-06
-0.0034058927
3.7722646e-07
-3.887125e-07
-2.6814377e-06
-0.0030212544
3.4299201e-07
-3.6889552e-07
-1.5265395e-06
-0.0026411255
3.0773547e-07
-3.4876141e-07
-0.0021752569
2.6875627e-07
-3.2154351e-07
1.5163469e-06
-0.0021767147
2.0054679e-07
-2.590049e-07
2.6533422e-06
-0.0026422149
2.3208816e-07
-2.7959656e-07
3.5859419e-06
-0.0030221536
2.6163768e-07
-2.9494364e-07
4.4122741e-06
-0.0034066992
2.8993471e-07
-3.0974071e-07
-0.056195856
5.2251269e-06
-2.3636472e-06
4.5982378e-06
-4.3637963e-06
-0.056198413
3.6645048e-06
-1.6532642e-06
4.9094085e-06
-3.5527478e-06
-0.0034074747
1.9182634e-07
-2.2739451e-07
-2.6356542e-06
-0.0030230234
1.707567e-07
-2.180455e-07
-1.5085774e-06
-0.0026432821
1.4860875e-07
-2.0847492e-07
-0.0021781542
1.2637925e-07
-1.9546168e-07
1.5095776e-06
-0.0021795789
4.2195605e-08
-1.2693182e-07
2.6267047e-06
-0.0026443203
5.1804872e-08
-1.3069558e-07
3.5369854e-06
-0.003023865
6.4651908e-08
-1.3331661e-07
4.3354425e-06
-0.003408214
7.6674723e-08
-1.3583045e-07
-0.056200519
1.844346e-06
-8.5060978e-07
5.4480185e-06
-4.3308132e-06
-0.056202006
-2.1338494e-07
-6.6313604e-08
6.0967469e-06
-3.5357789e-06
-0.0034089012
-5.4937096e-08
-5.2874982e-08
-2.6303551e-06
-0.003024657
-5.6244916e-08
-5.7142502e-08
-1.5123488e-06
-0.0026453186
-5.796042e-08
-6.1697482e-08
-0.002180971
-5.2875818e-08
-6.7417545e-08
1.521373e-06
-0.0021823611
-1.4450127e-07
1.3320644e-08
2.6431256e-06
-0.0026463061
-1.6436001e-07
3.0144721e-08
3.5462807e-06
-0.0030254294
-1.733643e-07
4.261428e-08
4.3435677e-06
-0.0034095703
-1.8237698e-07
5.4165609e-08
-0.056203041
-2.189862e-06
8.1990043e-07
6.748959e-06
-4.359149e-06
-0.056203699
-3.3983475e-06
1.2694656e-06
7.1462847e-06
-3.5630449e-06
-0.0034102113
-2.628688e-07
1.0777373e-07
-2.6509336e-06
-0.0030261864
-2.4771303e-07
9.258261e-08
-1.5294844e-06
-0.0026472721
-2.3172574e-07
7.6333613e-08
-0.0021837425
-2.0238325e-07
5.4253609e-08
1.5331231e-06
-0.002185127
-1.9520534e-07
4.659361e-08
2.6587114e-06
-0.0026482404
-2.2302139e-07
6.576035e-08
3.5657963e-06
-0.0030269355
-2.3757204e-07
7.9646791e-08
4.3612488e-06
-0.0034108479
-2.5132785e-07
9.2541239e-08
-0.056204291
-3.1658984e-06
1.0769323e-06
7.0418551e-06
-4.3557091e-06
-0.056205239
-1.2028254e-06
1.3777104e-07
6.3688595e-06
-3.5644183e-06
-0.003411504
-1.3317176e-07
-2.0530518e-09
-2.6614542e-06
-0.003027702
-1.3060471e-07
-5.9330096e-09
-1.5391534e-06
-0.0026492245
-1.2824423e-07
-9.9421571e-09
-0.0021865331
-1.1694011e-07
-1.6079175e-08
1.5406704e-06
-0.0021879781
3.1802311e-08
-1.2746042e-07
2.6615209e-06
-0.0026502517
5.0009031e-08
-1.4367327e-07
3.5622204e-06
-0.0030285159
6.934685e-08
-1.560946e-07
4.3478229e-06
-0.0034122092
8.7147119e-08
-1.6756475e-07
-0.056206971
2.3643441e-06
-1.4567979e-06
5.172039e-06
-4.3745249e-06
-0.056209691
6.7839344e-06
-3.3568574e-06
3.6675923e-06
-3.5836705e-06
-0.0034129949
3.6415632e-07
-3.6928743e-07
-2.6791181e-06
-0.0030294021
3.2143576e-07
-3.3980928e-07
-1.553413e-06
-0.0026513446
2.7524444e-07
-3.080495e-07
-0.0021894871
2.2079376e-07
-2.6523156e-07
1.556907e-06
-0.0021910555
4.0134822e-07
-3.8979799e-07
2.6853472e-06
-0.0026525041
4.8762911e-07
-4.5648277e-07
3.5915839e-06
-0.0030303609
5.5780825e-07
-5.051995e-07
4.3839348e-06
-0.0034138606
6.2348213e-07
-5.5011629e-07
-0.056213498
1.08644e-05
-5.0333135e-06
2.3598916e-06
-4.4340046e-06
-0.056218133
1.3311847e-05
-5.9311914e-06
1.6886495e-06
-3.6316694e-06
-0.0034147914
7.7530579e-07
-6.4680599e-07
-2.7153873e-06
-0.0030313792
6.9553638e-07
-5.9352443e-07
-1.5744558e-06
-0.0026537199
6.1048504e-07
-5.3566221e-07
-0.0021926778
5.0421031e-07
-4.5638042e-07
1.5996403e-06
-0.0021943549
5.057523e-07
-4.282828e-07
2.7658568e-06
-0.0026549952
6.1374053e-07
-5.0464646e-07
3.7073218e-06
-0.0030324605
7.001625e-07
-5.6032426e-07
4.5350478e-06
-0.003415789
7.8125063e-07
-6.1139167e-07
-0.056223276
1.3468908e-05
-5.6625623e-06
1.8719036e-06
-4.7031243e-06
-0.0562283
1.1377067e-05
-4.517913e-06
2.8673793e-06
-3.8330853e-06
-0.003416808
6.4357615e-07
-4.9462472e-07
-2.8489321e-06
-0.0030335638
5.7332667e-07
-4.5419393e-07
-1.6416968e-06
-0.0026562911
4.9866614e-07
-4.099882e-07
-0.002196056
4.0775433e-07
-3.4841162e-07
1.6953078e-06
-0.002197788
2.4132834e-07
-2.0446202e-07
2.9526372e-06
-0.0026576042
2.9485984e-07
-2.3902282e-07
3.9885584e-06
-0.0030346833
3.4763455e-07
-2.6403662e-07
4.9107038e-06
-0.003417843
3.9958099e-07
-2.8668763e-07
-0.056232877
7.629634e-06
-2.5833577e-06
4.4417755e-06
-5.0781628e-06
-0.05623691
3.0937625e-06
-4.8619332e-07
6.5037545e-06
-4.1237322e-06
-0.0034188311
9.5162812e-08
-6.1521725e-08
-3.0570053e-06
-0.0030357584
6.6578291e-08
-5.8196882e-08
-1.7561431e-06
-0.0026588885
3.7108415e-08
-5.3664114e-08
-0.002199511
1.2873497e-08
-4.6030781e-08
1.7198927e-06
-0.0022011565
-1.6059746e-07
8.635737e-08
2.9818215e-06
-0.0026601004
-1.536989e-07
1.0379244e-07
4.0143419e-06
-0.0030367637
-1.4411834e-07
1.1693378e-07
4.932253e-06
-0.0034197406
-1.379311e-07
1.2956428e-07
-0.056241201
-6.4640327e-07
1.2824174e-06
8.5874438e-06
-5.3798524e-06
-2.642225e-06
2.3620945e-06
9.3898331e-06
-4.34866e-06
-2.7175478e-07
2.4723245e-07
-3.2080997e-06
-2.6775905e-07
2.2490493e-07
-1.8365552e-06
-2.6814245e-07
2.0119842e-07
-2.6438308e-07
1.6806945e-07
-4.9627553e-06
0.082171879
-2.5356891e-06
1.2754836e-05
-3.9318287e-06
0.0035182647
-1.4572446e-07
-2.845892e-06
0.0030636717
-1.2598271e-07
-1.6005764e-06
0.002633273
-1.0362088e-07
0.0021375692
-7.2693584e-08
1.4461885e-06
0.0021358447
1.1784792e-07
2.5194675e-06
0.0026319413
1.0477354e-07
3.4255042e-06
0.0030625252
9.634194e-08
4.2680968e-06
0.0035171926
9.1538228e-08
0.082162813
2.1692282e-07
1.2470909e-05
-4.675396e-06
0.08215574
3.4052414e-06
1.1436411e-05
-3.742993e-06
0.0035160598
2.9556954e-07
-2.7557807e-06
0.0030613253
2.7934082e-07
-1.5884338e-06
0.0026305521
2.5904455e-07
0.0021340461
2.2294666e-07
1.7136251e-06
0.0021321877
3.8625847e-07
3.0268229e-06
0.0026290808
4.5297768e-07
4.1690057e-06
0.0030600306
5.0013238e-07
5.2585304e-06
0.0035148268
5.4306925e-07
0.082150918
7.1260913e-06
1.058467e-05
-5.2145552e-06
0.082146341
1.0505456e-05
1.0662907e-05
-4.1281345e-06
0.0035136035
7.8048123e-07
-2.9869424e-06
0.0030587474
7.1535894e-07
-1.6777849e-06
0.0026276247
6.4556861e-07
0.0021303679
5.4974603e-07
1.6547114e-06
0.002128586
6.3298801e-07
2.9423885e-06
0.0026262052
7.4563366e-07
4.0579752e-06
0.0030575036
8.2830296e-07
5.1145607e-06
0.0035124229
9.0533112e-07
0.082141922
1.2305174e-05
1.0697156e-05
-5.072921e-06
0.082138009
1.1706625e-05
1.0591144e-05
-4.0290197e-06
0.0035112968
8.5744989e-07
-2.9234901e-06
0.0030563094
7.8420275e-07
-1.6468825e-06
0.0026248329
7.0612238e-07
0.0021268436
5.9973863e-07
1.6389634e-06
0.0021251568
4.4931763e-07
2.9163815e-06
0.0026235169
5.2616771e-07
4.0228047e-06
0.0030551778
5.8301285e-07
5.0688799e-06
0.0035102373
6.3686933e-07
0.082134822
8.6868459e-06
1.0433328e-05
-5.0054457e-06
0.082132193
4.0843754e-06
1.0334469e-05
-3.974319e-06
0.003509268
3.0243191e-07
-2.8771329e-06
0.0030541239
2.7820319e-07
-1.6140595e-06
0.0026222756
2.535219e-07
0.0021235426
2.2092297e-07
1.5602429e-06
0.002121997
1.7242848e-08
2.7734305e-06
0.0026211067
5.7199535e-09
3.8192941e-06
0.0030531505
-3.1395775e-09
4.8040581e-06
0.0035083815
-1.1154058e-08
0.082129804
-6.0552729e-07
1.0162866e-05
-4.6582768e-06
0.082127676
-4.3390689e-06
9.9223237e-06
-3.7054211e-06
0.0035075557
-2.602304e-07
-2.6898756e-06
0.0030522308
-2.2648916e-07
-1.5151252e-06
0.0026199927
-1.8900983e-07
0.0021205012
-1.362479e-07
1.514267e-06
0.0021190283
-2.36628e-07
2.6888707e-06
0.0026188973
-3.0218995e-07
3.7003602e-06
0.0030513353
-3.5352729e-07
4.6540703e-06
0.0035067515
-4.008868e-07
0.082125834
-6.4183015e-06
9.7481665e-06
-4.6939967e-06
0.082124019
-6.6397636e-06
9.7502899e-06
-3.7293655e-06
0.0035059499
-4.2587945e-07
-2.7012989e-06
0.0030504375
-3.7802294e-07
-1.5158205e-06
0.0026178055
-3.2542045e-07
0.0021175663
-2.5611791e-07
1.5115043e-06
0.0021160929
-1.8259208e-07
2.6958684e-06
0.0026166975
-2.4069201e-07
3.7211704e-06
0.0030495228
-2.8393237e-07
4.6861805e-06
0.0035051258
-3.2322207e-07
0.082121905
-5.2409533e-06
9.8510254e-06
-4.6652987e-06
0.082119329
-3.0209234e-06
1.0049607e-05
-3.7010825e-06
0.0035042642
-1.576062e-07
-2.6784476e-06
0.0030485759
-1.3198995e-07
-1.4998708e-06
0.0026155643
-1.0342367e-07
0.0021146057
-6.5524474e-08
1.4947431e-06
0.0021131008
5.2395908e-08
2.6711825e-06
0.0026144046
3.5173729e-08
3.6947489e-06
0.0030475954
2.1544978e-08
4.6582395e-06
0.0035033677
9.7494669e-09
0.082116231
-7.6319165e-07
1.0363102e-05
-4.6750862e-06
0.08211263
1.1369595e-06
1.080421e-05
-3.7013076e-06
0.0035024351
1.5064395e-07
-2.6737135e-06
0.0030465875
1.5109597e-07
-1.4918705e-06
0.0026132189
1.5246231e-07
0.0021115821
1.5319299e-07
1.4962668e-06
0.0021100498
2.3662344e-07
2.6882814e-06
0.0026120115
2.4743726e-07
3.7295673e-06
0.0030455529
2.5489028e-07
4.7192614e-06
0.0035014723
2.6302144e-07
0.082108456
2.6391095e-06
1.1478676e-05
-4.7988028e-06
0.08210354
3.8600364e-06
1.2473499e-05
-3.7825412e-06
0.0035004777
3.556106e-07
-2.7162392e-06
0.0030444887
3.4095879e-07
-1.5087534e-06
0.0026107849
3.2686488e-07
0.0021085022
3.0762569e-07
1.5236737e-06
0.0021069425
3.7690766e-07
2.7619553e-06
0.00260953
4.0281689e-07
3.8591413e-06
0.0030433963
4.2211488e-07
4.9134634e-06
0.003499448
4.4203817e-07
0.082097628
4.9488666e-06
1.3908127e-05
-5.0706595e-06
0.082089944
6.1243072e-06
1.6309607e-05
-3.9679846e-06
0.0034983774
5.3860532e-07
-2.8274344e-06
0.0030422671
5.1344991e-07
-1.5548782e-06
0.0026082466
4.8884214e-07
0.0021053573
4.5549282e-07
1.5915759e-06
0.002103743
5.5246164e-07
2.9130783e-06
0.002606921
5.9475739e-07
4.1106567e-06
0.0030410882
6.2580445e-07
5.2760033e-06
0.003497253
6.571804e-07
0.082078442
7.5508926e-06
2.0972966e-05
-5.5484863e-06
0.082058084
9.3005623e-06
3.1126827e-05
-4.2991088e-06
0.0034960591
8.0348165e-07
-3.0289135e-06
0.0030398487
7.6441706e-07
-1.6443098e-06
0.0026055424
7.2593187e-07
0.002102085
6.7360739e-07
1.7065599e-06
0.0021003764
8.1882304e-07
3.1718573e-06
0.0026040971
8.8311374e-07
4.5282268e-06
0.0030385408
9.3021444e-07
5.8676437e-06
0.003494798
9.7781764e-07
0.082017627
1.1345695e-05
5.3299573e-05
-6.3195749e-06
0.081935616
1.3527134e-05
9.8369278e-05
-4.8506814e-06
0.0034934483
1.1724039e-06
-3.3727727e-06
0.0030371422
1.1169986e-06
-1.798021e-06
0.0026025664
1.0632014e-06
0.0020985983
9.9118672e-07
1.9281221e-06
0.0020967029
1.1468743e-06
3.6516953e-06
0.0026009153
1.2269628e-06
5.2839758e-06
0.0030356322
1.2841325e-06
6.9132476e-06
0.0034919992
1.3432584e-06
0.081778551
1.5302838e-05
0.00017901653
-9.0400469e-06
0.081509715
1.6033887e-05
0.00030082183
-6.7995857e-06
0.0034900796
1.4706242e-06
-4.5984611e-06
0.0030336651
1.4201388e-06
-2.3699745e-06
0.0025988532
1.376706e-06
0.0020944636
1.3258478e-06
3.7605708e-06
0.0020908871
1.3176683e-06
7.5978776e-06
0.0025953067
1.3571182e-06
1.1626378e-05
0.0030300392
1.3774869e-06
1.6007455e-05
0.0034862358
1.4053387e-06
0.081114093
1.4522632e-05
0.0004455231
-4.0907096e-05
0.080644738
1.4894273e-05
0.00056551434
-2.8853052e-05
0.0034757007
1.6477968e-06
-1.8202281e-05
0.0030206843
1.654533e-06
-8.6673324e-06
0.002586901
1.6812619e-06
0.0020832838
1.6934053e-06
1.9550169e-05
0.0020655693
1.3435021e-06
4.258558e-05
0.0025662502
1.5135576e-06
6.8978104e-05
0.0029970464
1.5284744e-06
9.9443494e-05
0.0034483694
1.494366e-06
0.080245499
1.7464999e-05
0.00058921689
-0.00019514524
0.080133407
7.5652352e-05
0.00053668239
-0.00013431858
0.0034000634
5.3435895e-06
-8.2352137e-05
0.0029565911
4.9703897e-06
-3.774198e-05
0.0025325199
4.401734e-06
0.0020382959
3.4758707e-06
5.5188491e-05
0.0019958748
2.1880165e-06
0.00011703953
0.0024859179
3.9376635e-06
0.00018730364
0.0029035698
5.2065992e-06
0.00026845771
0.0033378822
6.2552296e-06
0.080179253
0.00012863058
0.00059816029
-0.0010053249
0.00040230738
0.0016927998
-0.00073439852
4.0806303e-05
-0.00048253458
4.0344427e-05
-0.00024112298
3.6238107e-05
2.5317863e-05
5.6277553e-05
-0.0020323372
-5.1090975e-06
-4.3730484e-07
0.00011963781
-0.0025256504
-1.2646524e-06
-4.8644085e-06
0.00019163997
-0.0029486845
1.3562961e-06
-8.2627871e-06
0.00027507566
-0.0033910411
3.2916316e-06
-1.1422015e-05
-0.079975223
0.00016821236
-0.00038398688
0.00054938129
-0.00019023481
-0.080149567
5.1532435e-05
-0.00019272068
0.00050576686
-0.00013065511
-0.0034434235
6.4220546e-07
-7.8395212e-06
-8.0159882e-05
-0.0029927338
1.6491921e-07
-6.6107865e-06
-3.6986186e-05
-0.0025625674
-6.9807238e-07
-5.5586224e-06
-0.0020625951
-2.1408485e-06
-4.5874797e-06
1.850552e-05
-0.0020818063
-3.7517836e-06
4.4574443e-06
4.0262428e-05
-0.0025850376
-3.7829967e-06
4.4962813e-06
6.538571e-05
-0.0030184851
-3.86446e-06
4.4924148e-06
9.4658127e-05
-0.0034731582
-3.993927e-06
4.4561811e-06
-0.080587277
-3.2791174e-05
1.1228599e-05
0.00055393034
-3.7817163e-05
-0.081076737
-4.0667137e-05
2.7504206e-05
0.00054043987
-2.6524103e-05
-0.003484684
-3.4039937e-06
3.6368491e-06
-1.6645711e-05
-0.0030286942
-3.154067e-06
3.4849443e-06