/*--------------------------------*- C++ -*----------------------------------*\
  =========                 |
  \\      /  F ield         | OpenFOAM: The Open Source CFD Toolbox
   \\    /   O peration     | Website:  https://openfoam.org
    \\  /    A nd           | Version:  7
     \\/     M anipulation  |
\*---------------------------------------------------------------------------*/
FoamFile
{
    version     2.0;
    format      ascii;
    class       volScalarField;
    location    "440";
    object      k;
}
// * * * * * * * * * * * * * * * * * * * * * * * * * * * * * * * * * * * * * //

dimensions      [0 2 -2 0 0 0 0];

internalField   nonuniform List<scalar> 
24866
(
3468.0716
3534.7255
3544.0125
4134.4706
4720.524
4709.4527
4668.8072
4720.9908
4726.3621
4663.2359
4689.341
4689.6802
4664.0806
4726.9139
4720.4741
4670.7035
4704.973
4722.0256
4706.6942
4690.9979
4624.2181
4736.622
4869.5676
4808.5672
4680.6341
4596.4656
4694.8287
4817.7237
4804.8803
4641.1204
4711.5849
4709.6308
4709.6239
4711.5907
4641.3287
4804.9688
4818.2783
4695.362
4595.9064
4679.9611
4808.3829
4869.5517
4736.6734
4624.23
4691.5315
4706.4067
4722.7643
4704.3668
4671.1589
4719.2837
4727.8535
4663.819
4689.3483
4689.6093
4664.4657
4725.9339
4721.481
4667.8367
4710.6898
4719.4646
4752.6095
4724.5008
4753.0993
4755.0713
4682.0332
4715.4451
4776.2415
4764.5617
4682.553
4685.1263
4685.3531
4682.9456
4764.7573
4776.2907
4715.6651
4681.198
4751.0707
4750.6709
4715.2507
4735.338
4728.979
4629.0706
4642.9317
4701.2064
4720.518
4783.7916
4715.4508
4654.9224
4727.1819
4792.218
4720.744
4663.0079
4703.5674
4707.454
4700.5278
4683.5391
4671.6705
4691.7127
4686.4663
4696.1156
4692.3833
4695.6369
4691.4889
4697.8623
4702.1257
4702.1822
4700.0026
4704.9691
4698.6879
4691.2084
4642.1998
4744.1189
4740.8901
4714.0631
4679.3661
4693.9758
4695.7227
4698.2189
4701.9709
4704.2193
4703.7522
4700.451
4703.6657
4698.5236
4692.9095
4689.9201
4676.2491
4682.5732
4685.4607
4692.5693
4699.8322
4705.2312
4708.1929
4706.7163
4707.2819
4705.4069
4701.9911
4700.0326
4695.7361
4698.7155
4679.3956
4642.2406
4744.1121
4740.8761
4537.8759
4539.0649
4169.738
4112.9493
4124.4618
4124.4619
4112.9424
4052.9214
4066.3551
4590.7973
4589.6348
4084.2934
4101.8255
4012.0461
4082.5028
4063.0193
3947.5412
3918.9623
4025.9223
4095.7859
4121.6582
4133.4637
4110.7663
4071.3109
4118.4849
4120.6354
4047.9965
4047.7702
4047.3146
4046.9549
4119.8231
4118.5369
4070.4435
4113.8099
4179.8772
4190.8575
4548.8809
4550.8813
4166.1736
4015.2354
4177.9443
4123.9044
4074.2234
4688.6134
4695.4124
4688.625
4696.1381
4689.4322
4675.7271
4682.3904
4685.2391
4692.2843
4699.4325
4704.6922
4707.5579
4708.2216
4708.8532
4707.3087
4704.264
4702.2345
4703.6157
4705.0003
4720.7917
4691.2309
4098.8535
4124.8145
4452.3975
4590.9325
4066.1361
4052.9417
3518.2731
3530.8437
3536.3008
3536.2978
3530.827
3518.2336
3493.7386
3503.8445
3512.1926
3489.5317
3505.7535
3492.8271
3448.8667
3432.1632
3498.1959
3522.121
3535.9747
3542.1279
3533.1014
3534.1089
3532.6759
3535.4451
3517.4518
3513.4024
3513.3153
3516.811
3534.596
3532.2238
3533.4407
3078.4711
3076.3699
3077.8635
3077.7891
3076.6066
3535.0929
4114.5066
4070.2285
4119.001
4119.5316
4048.28
4047.68
4047.3626
4047.6224
4120.5075
4117.6884
4071.8466
4110.4544
4133.9952
4121.6109
4096.1864
4026.0486
3919.0985
4440.055
4637.0918
4568.4657
4063.332
4082.8208
4012.2051
4101.5898
4083.8193
4590.0403
4466.3001
4161.619
4120.7696
3992.2156
4156.5013
4190.0296
4199.5847
4577.7959
4792.4052
4727.2991
4654.8918
4663.0402
4720.4956
4707.5183
4702.2033
4703.8242
4706.7697
4703.7403
4705.2796
4704.7134
4702.0686
4697.4915
4692.2845
4692.3446
4694.5192
4697.5095
4699.4735
4699.8944
4698.6107
4695.7478
4700.5457
4697.9636
4700.6202
4701.2252
4643.0318
4683.6783
4691.6169
4691.8656
4692.5064
4693.0002
4692.6378
4692.3482
4692.321
4692.3538
4696.1416
4689.4956
4685.3326
4685.535
4690.0025
4696.2477
4686.6463
4715.412
4671.8541
4629.246
4729.331
4735.3114
4531.8343
4176.6935
4155.7616
4525.8575
4137.9168
4159.4152
3994.0054
3453.582
3522.4193
3498.3462
3432.2663
3449.029
3948.0411
3957.0313
4094.1064
4122.3339
4456.5218
4438.2341
4123.1091
3973.8328
4138.0449
3423.2534
3492.9241
3505.7416
3489.4931
3512.2914
3503.926
3493.7475
3045.9133
3065.4757
3071.4356
3072.1794
3072.1774
3071.4241
3065.4533
3045.9129
3047.9515
3054.1482
3046.6603
3051.5877
3041.4057
3020.7007
3015.5109
3053.6898
3066.3162
3072.5521
3076.3982
3075.6999
3079.0812
3075.2105
3076.9183
3071.7894
3070.6198
3070.2665
3071.0117
3076.1879
3074.6672
2706.1144
2709.6709
2707.364
2706.8897
2706.8777
2707.5318
2709.8231
3078.5792
3533.4133
3532.6264
3534.8729
3517.5497
3513.3853
3513.4412
3517.3679
3535.2275
3532.1568
3534.2807
3532.9939
3542.4464
3536.0667
3072.6516
3066.5208
3053.8245
3015.6119
3020.8348
3041.4971
3051.6141
3046.6563
3054.1855
3047.9663
2685.1288
2684.9998
2698.9278
2702.4257
2702.4762
2702.4758
2702.4175
2698.9129
2684.9953
2685.1166
2689.2475
2687.2434
2688.3785
2680.8076
2669.6178
2668.2968
2691.3224
2699.4777
2703.1929
2705.8155
2707.1417
2710.2142
2706.6552
2707.7125
2706.6859
2706.3203
2706.0825
2706.1112
2707.0942
2406.9758
2406.3935
2409.1741
2407.1479
2406.1498
2406.1631
2407.2755
2409.3307
2406.6521
2407.2767
2707.4375
3076.5275
3071.7916
3070.6265
3070.4021
3071.4305
3076.6628
3074.8363
3079.0876
3075.6396
3076.5672
2705.8979
2703.2705
2699.6152
2691.43
2668.3834
2669.7184
2680.8792
2688.4056
2687.2488
2689.2728
2393.0307
2390.0877
2390.7522
2400.4878
2402.625
2402.5881
2402.5874
2402.6188
2400.477
2390.7462
2390.0775
2393.0124
2393.2162
2392.795
2386.989
2380.4892
2380.8529
2395.3114
2400.8198
2403.3992
2405.313
2407.1032
2409.6399
2406.8816
2407.4808
2407.9221
2407.9246
2407.7482
2407.4841
2162.3357
2161.3396
2161.0345
2163.106
2161.4122
2160.3845
2160.4056
2161.5131
2163.25
2161.25
2161.592
2162.6313
2407.8828
2706.6579
2706.3436
2706.2083
2706.4227
2707.4564
2706.3554
2710.1412
2707.0875
2407.0488
2405.3477
2403.4531
2400.9124
2395.3947
2380.9242
2380.5658
2387.0457
2392.8207
2393.2259
2151.323
2150.3571
2148.1982
2149.2035
2156.0796
2157.4175
2157.4214
2157.4202
2157.4125
2156.0711
2149.1972
2148.1896
2150.3434
2151.3119
2150.2703
2145.7586
2141.7867
2142.895
2152.3912
2156.2102
2158.1778
2159.6663
2161.4092
2163.4884
2161.4547
2161.7507
2162.6746
2162.8967
2162.7633
1959.8928
1959.4073
1958.3526
1958.2152
1959.7292
1958.3668
1957.4781
1957.5
1958.4483
1959.855
1958.3931
1958.5601
1959.6305
1960.0077
2162.9131
2407.9484
2407.8536
2407.7204
2407.2591
2406.6416
2409.5397
2163.3867
2161.357
2159.6767
2158.2139
2156.2742
2152.4557
2142.9532
2141.846
2145.804
2150.2938
1949.4104
1950.6263
1949.536
1947.9569
1949.057
1953.9942
1954.8848
1954.9542
1954.9529
1954.8805
1953.9873
1949.051
1947.9494
1949.5251
1950.615
1949.3893
1945.8679
1943.3505
1944.726
1951.241
1953.99
1955.5937
1956.8108
1958.3448
1960.0295
1958.5659
1958.6872
1959.6737
1959.9956
1789.857
1789.7751
1789.3028
1788.3639
1788.3142
1789.4072
1788.3516
1787.641
1787.661
1788.4184
1789.5145
1788.4607
1788.5333
1789.4751
1789.8665
1789.8359
1959.9627
2162.8475
2162.5197
2161.5669
2161.2642
1958.4152
1959.9372
1958.2973
1956.8099
1955.6181
1954.0357
1951.2914
1944.7736
1943.3974
1945.9048
1778.1733
1780.9127
1782.1142
1781.1554
1780.0216
1781.081
1784.6812
1785.3313
1785.4572
1785.456
1785.3276
1784.6753
1781.0754
1780.0151
1781.1463
1782.1031
1780.8939
1778.1429
1776.5104
1777.9039
1782.5419
1784.6095
1785.97
1786.9962
1788.2905
1789.6333
1788.6003
1788.6367
1789.5166
1644.895
1645.2122
1645.1467
1644.7229
1643.9486
1643.9351
1644.716
1643.921
1643.3767
1643.3942
1643.9764
1644.8067
1644.0559
1644.0866
1644.8573
1645.2198
1645.1991
1644.8233
1789.424
1959.5546
1958.5384
1788.5173
1788.4811
1789.5538
1788.249
1786.9905
1785.9869
1784.6435
1782.5823
1777.9432
1776.5483
1634.4217
1635.4875
1637.6279
1638.729
1637.9759
1637.1799
1638.1313
1640.7906
1641.307
1641.4707
1641.4695
1641.3038
1640.7856
1638.1262
1637.1742
1637.9681
1638.7186
1637.6112
1635.462
1634.3904
1635.68
1639.0796
1640.6951
1641.8707
1642.749
1643.8208
1644.8792
1644.1645
1644.1705
1519.8081
1520.3828
1520.6595
1520.6067
1520.2434
1519.6277
1519.6219
1520.175
1519.5852
1519.1795
1519.1945
1519.6316
1520.2514
1519.7218
1519.7402
1520.3495
1520.6656
1520.6518
1520.3272
1519.7325
1644.0754
1644.07
1644.8124
1643.7852
1642.7418
1641.8829
1640.7214
1639.1125
1635.7129
1512.9759
1511.8384
1512.5417
1514.2147
1515.1858
1514.6353
1514.0886
1514.907
1516.8936
1517.3248
1517.5079
1517.5068
1517.3219
1516.8891
1514.9024
1514.0835
1514.6285
1515.1762
1514.1998
1512.5199
1511.8122
1512.9482
1515.498
1516.7945
1517.8164
1518.5728
1519.4535
1520.2871
1519.8035
1411.5336
1411.5493
1411.9993
1412.2322
1412.1894
1411.8858
1411.4026
1411.3914
1411.781
1411.3441
1411.0475
1411.0603
1411.3831
1411.8454
1411.4744
1411.4947
1411.9705
1412.2372
1412.2282
1411.9562
1411.4891
1411.4734
1519.7282
1520.2316
1519.4233
1518.5654
1517.8255
1516.8154
1515.5251
1407.8903
1405.9419
1404.9685
1405.4343
1406.7439
1407.5826
1407.2038
1406.8363
1407.5215
1409.0217
1409.388
1409.5764
1409.5755
1409.3855
1409.0178
1407.5175
1406.8318
1407.1977
1407.5738
1406.7305
1405.4157
1404.9462
1405.9184
1407.8677
1408.9251
1409.8141
1410.4672
1411.1898
1411.8528
1316.6141
1316.41
1316.4398
1316.793
1316.9855
1316.9506
1316.7003
1316.3206
1316.3
1316.5739
1316.2465
1316.0332
1316.0441
1316.2796
1316.6284
1316.3693
1316.3964
1316.7685
1316.9897
1316.984
1316.7596
1316.3918
1316.3615
1316.576
1411.8068
1411.1642
1410.4602
1409.8209
1408.9419
1314.1593
1313.2946
1311.7802
1310.9609
1311.2709
1312.2983
1313.0146
1312.771
1312.5295
1313.0942
1314.2401
1314.5505
1314.7345
1314.7337
1314.5482
1314.2367
1313.0906
1312.5254
1312.7656
1313.0065
1312.2865
1311.2548
1310.9419
1311.7602
1313.2757
1314.1456
1314.9183
1315.4833
1316.0777
1231.884
1232.3275
1232.2023
1232.2447
1232.5257
1232.6834
1232.6548
1232.4496
1232.1481
1232.1185
1232.3118
1232.0612
1231.9101
1231.9194
1232.0894
1232.3581
1232.1767
1232.2107
1232.5051
1232.6871
1232.6837
1232.4998
1232.2064
1232.163
1232.2959
1231.8654
1316.0559
1315.4768
1314.9235
1230.907
1230.2432
1229.529
1228.3334
1227.65
1227.8576
1228.6663
1229.2743
1229.1326
1228.9783
1229.44
1230.3262
1230.5863
1230.7601
1230.7594
1230.5843
1230.3232
1229.4368
1228.9748
1229.1279
1229.2671
1228.6558
1227.8437
1227.6338
1228.3164
1229.5131
1230.2321
1230.9033
1231.3927
1156.4648
1156.8734
1157.2483
1157.1762
1157.228
1157.4557
1157.5849
1157.5613
1157.3932
1157.1499
1157.1137
1157.2514
1157.0542
1156.9489
1156.9567
1157.0783
1157.2909
1157.1628
1157.202
1157.4388
1157.5882
1157.5862
1157.4356
1157.1973
1157.1442
1157.2219
1156.8574
1156.459
1231.3867
1232.4352
1233.4909
1231.6014
1232.0731
1233.0671
1229.5175
1230.3065
1231.3616
1231.8982
1231.4026
1230.6514
1155.9526
1154.481
1154.8576
1155.5522
1155.7671
1155.9276
1155.9268
1155.7655
1155.5499
1154.8553
1154.4784
1154.5721
1154.6372
1154.1194
1153.4776
1153.3353
1153.9027
1154.8615
1155.4571
1156.04
1088.9523
1089.3215
1089.6641
1089.9876
1089.9507
1090.0083
1090.1969
1090.3028
1090.2831
1090.1449
1089.9448
1089.9047
1090.0047
1089.8445
1089.7723
1089.7794
1089.8655
1090.0388
1089.9466
1089.9887
1090.1828
1090.3057
1090.3049
1090.1812
1089.9835
1089.9242
1089.9653
1089.6501
1089.3161
1088.9537
1156.0425
1155.466
1154.8746
1153.9168
1153.3487
1153.4891
1154.1281
1154.643
1154.5757
1087.7368
1087.6825
1087.9905
1088.5426
1088.7175
1088.8632
1088.863
1088.7168
1088.5417
1087.99
1087.6822
1087.7357
1087.7485
1087.3099
1086.8004
1086.7025
1087.1738
1087.9523
1088.4463
1028.0833
1028.5226
1028.844
1029.1331
1029.4176
1029.403
1029.4634
1029.6232
1029.7106
1029.694
1029.5796
1029.4115
1029.3699
1029.4446
1029.31
1029.2619
1029.2681
1029.3286
1029.4744
1029.4062
1029.4488
1029.6114
1029.7132
1029.713
1029.6107
1029.443
1029.3807
1029.3982
1029.1203
1028.838
1028.5221
1028.0868
1088.453
1087.9624
1087.1846
1086.7123
1086.8084
1087.3154
1087.7515
1027.4866
1027.5079
1027.4807
1027.7342
1028.1799
1028.3199
1028.451
1028.4514
1028.3212
1028.1822
1027.7384
1027.486
1027.5132
1027.4904
1027.1184
1026.7115
1026.6423
1027.0344
1027.6741
973.10796
973.44455
973.82546
974.10504
974.35046
974.60529
974.60392
974.66408
974.80306
974.87626
974.86196
974.76569
974.62086
974.58025
974.63861
974.52103
974.49026
974.49586
974.53777
974.66516
974.61222
974.65332
974.79303
974.87847
974.87869
974.79276
974.64668
974.58445
974.58768
974.33771
974.09729
973.82111
973.442
973.10512
1027.6798
1027.0395
1026.6457
1026.7127
1027.117
972.61263
972.92648
972.97122
972.96115
973.17268
973.53876
973.64843
973.76639
973.7684
973.65448
973.54899
973.18812
972.98063
972.99217
972.94678
972.6305
972.30275
972.25056
972.57704
923.03667
923.4795
923.75005
924.07857
924.32067
924.52912
924.76261
924.76731
924.82437
924.94968
925.01278
925.00013
924.91681
924.78732
924.75
924.79884
924.69032
924.67213
924.67731
924.70576
924.82306
924.77887
924.81629
924.94087
925.01458
925.01503
924.94074
924.8089
924.74951
924.7455
924.51483
924.30867
924.06646
923.73527
923.45916
923.00622
972.57084
972.24009
972.28846
922.76275
923.02478
923.29169
923.34976
923.34879
923.52931
923.83705
923.91935
924.0271
924.03274
923.93654
923.86543
923.57074
923.40102
923.4068
923.34968
923.07976
922.81152
922.76594
877.5381
877.75765
878.12454
878.32769
878.60631
878.81273
878.98808
879.20938
879.21409
879.26514
879.38474
879.44237
879.43085
879.35496
879.23218
879.20046
879.24523
879.13634
879.12741
879.13233
879.15102
879.26794
879.22725
879.25877
879.3767
879.44377
879.44438
879.37664
879.25086
879.19709
879.1914
878.96991
878.79209
878.57878
878.28815
878.06836
877.67681
877.43261
922.72492
923.76483
924.21405
924.68486
924.91254
924.72439
924.31342
878.89464
877.97185
878.13159
878.39863
878.45416
878.55658
878.56987
878.4953
878.46588
878.22854
878.09444
878.1063
878.04778
877.81626
877.58949
836.08501
836.01018
836.17501
836.46815
836.5914
836.81695
836.98601
837.12907
837.34982
837.34908
837.39141
837.51581
837.57381
837.56313
837.4882
837.36114
837.33708
837.3822
837.25994
837.2577
837.26246
837.27421
837.40398
837.36251
837.38617
837.50835
837.57493
837.57566
837.50837
837.37803
837.33239
837.32954
837.10355
836.94925
836.76039
836.50412
836.34236
835.99571
835.77762
835.81899
877.46761
877.6822
877.90921
877.97195
836.25019
836.24063
836.38895
836.63072
836.65644
836.76083
836.78902
836.745
836.77461
836.5953
836.50232
836.53717
836.48898
836.28898
798.04479
797.84258
797.71885
797.81327
798.02189
798.03829
798.19909
798.32444
798.43281
798.66811
798.65719
798.68921
798.8326
798.89791
798.88748
798.80623
798.66089
798.64575
798.69457
798.54121
798.54315
798.54781
798.55521
798.71563
798.67006
798.68483
798.8255
798.89912
798.89998
798.82571
798.67681
798.6407
798.64407
798.39531
798.26022
798.09204
797.86564
797.77052
797.4557
797.25487
797.31456
797.47172
835.99895
836.19137
797.63334
797.67881
797.64612
797.79063
798.0204
798.00889
798.12509
798.17971
798.18305
798.30263
798.19457
798.15997
798.24233
798.21922
762.90061
762.74672
762.52306
762.31708
762.30858
762.4047
762.27189
762.34502
762.4153
762.48418
762.75145
762.7277
762.75035
762.92928
763.01012
763.00018
762.90473
762.72495
762.71763
762.77163
762.56665
762.56958
762.57405
762.58016
762.79166
762.74045
762.74753
762.92301
763.01176
763.01277
762.92345
762.73968
762.71204
762.72296
762.43009
762.3095
762.15914
761.96052
761.94601
761.65489
761.46623
761.55834
761.70367
761.83718
761.85966
761.78767
761.93208
762.15935
762.09954
762.23838
762.33519
762.41297
762.66798
762.66116
762.71861
762.88091
730.27239
730.35256
730.21525
729.94827
729.62459
729.46011
729.39139
729.05627
729.00804
729.00877
729.0345
729.34793
729.31492
729.33483
729.56299
729.66689
729.65804
729.5423
729.31565
729.3103
729.36655
729.09464
729.09418
729.09827
729.107
729.38461
729.33054
729.3357
729.5586
729.66832
729.66943
729.55906
729.32743
729.30199
729.31684
728.96288
728.85065
728.71592
728.54596
728.62476
728.35863
728.18409
728.31939
728.46025
728.56755
728.56021
728.4363
728.57701
728.80257
728.68469
728.85325
729.00955
729.19787
729.64342
729.79167
729.99521
700.04821
700.46466
700.61209
700.4887
700.16901
699.7038
699.30031
698.97413
698.38502
698.17781
698.09941
698.08626
698.44391
698.42199
698.45704
698.73249
698.85882
698.85233
698.7191
698.44971
698.43156
698.47434
698.14266
698.13467
698.13806
698.15291
698.48893
698.44737
698.46535
698.7318
698.85992
698.86094
698.7316
698.45525
698.41592
698.41722
698.00638
697.89464
697.77306
697.63568
697.80536
697.58704
697.4447
697.61422
697.74272
697.82303
697.78914
697.61839
697.7395
697.94417
697.77134
697.96554
698.19145
698.52857
699.21728
699.61422
672.41814
673.2335
673.78659
673.97115
673.85779
673.51452
672.91689
672.12453
671.35718
670.46689
670.08096
669.93369
669.89448
670.26286
670.31137
670.39814
670.68737
670.82344
670.82012
670.68549
670.41041
670.34766
670.32701
669.98433
669.97555
669.97802
669.99121
670.33644
670.3569
670.41833
670.69247
670.82505
670.82525
670.69113
670.40599
670.31918
670.25466
669.83223
669.7222
669.61118
669.5027
669.73314
669.64615
669.58589
669.72662
669.79178
669.83754
669.80209
669.62744
669.69179
669.81239
669.61466
669.81926
670.10234
670.6084
671.58959
646.94279
648.63023
650.09137
650.73288
650.86074
650.75405
650.48162
649.80242
648.36374
646.73121
645.44139
644.926
644.76011
644.68752
644.96464
645.24568
645.42488
645.64533
645.84646
645.86199
645.67179
645.46083
645.31795
645.08435
644.85395
644.8988
644.89959
644.8562
645.08699
645.32005
645.45957
645.6573
645.84898
645.86317
645.66939
645.44483
645.27412
644.99364
644.68168
644.62558
644.52246
644.39748
644.60772
644.91277
645.03029
644.96036
644.83707
644.88075
644.8672
644.783
644.71204
644.56229
644.43947
644.65662
644.94372
645.57029
622.80545
624.69504
628.77255
631.54972
631.79253
631.6421
631.55268
631.57499
631.29029
628.53545
624.50949
622.69489
621.90143
621.79762
622.1016
621.59419
623.07306
623.17384
623.16841
624.112
624.11537
623.19802
623.23456
623.18173
621.77801
622.36515
622.12121
622.12052
622.36258
621.77463
623.1752
623.21788
623.18476
624.1142
624.11244
623.18735
623.20657
623.12613
621.67706
622.19397
621.85278
621.75762
621.94066
621.6362
623.65232
623.20386
622.61958
622.43181
623.25429
622.5515
622.62416
622.58053
621.24706
621.88287
621.70092
621.91466
604.6823
604.93602
606.7959
613.59366
618.98998
617.85821
617.4405
617.34733
617.66719
618.77049
613.38643
606.6525
604.82504
604.71461
604.59067
604.68949
604.54366
605.19877
605.35983
605.39539
605.39199
605.40734
605.44841
605.44095
605.32718
604.77067
605.00738
605.07455
605.0772
604.99524
604.75168
605.30817
605.4261
605.40703
605.39472
605.40495
605.42917
605.42259
605.27786
604.65082
604.86747
604.79399
604.85235
604.61563
605.09749
608.78545
608.65794
605.82332
605.00382
604.87671
604.92871
604.93068
604.75024
604.25771
604.44421
604.5191
588.79716
588.7369
589.27803
591.0817
590.44587
589.61057
589.62284
589.38604
589.589
590.17739
591.12016
589.05119
588.96616
588.71125
589.35866
589.93138
589.24961
589.17257
590.62648
589.92044
589.94467
590.69735
589.25188
589.39792
590.21923
589.67956
589.44103
589.46796
589.6311
590.21897
589.35322
589.23226
590.62595
589.91782
589.9439
590.67034
589.20156
589.39964
590.03155
589.72952
589.00923
589.68314
589.19623
590.92422
588.2207
587.71708
590.45623
590.69264
589.64366
590.31609
588.95104
588.75603
589.82216
588.88533
588.3215
588.49201
589.87705
589.97418
590.16512
590.6314
590.60378
590.30731
590.21175
590.18387
590.34727
590.19378
588.77175
588.84909
590.42564
590.25886
589.80165
589.41724
589.25523
588.04493
588.18708
589.49287
589.49522
589.70988
590.26537
590.81195
588.67792
588.57239
603.45656
603.2728
607.04345
607.5587
617.4305
608.14594
607.52961
605.82414
607.68603
616.91498
607.27364
602.98058
603.16
607.11548
606.86188
604.93021
590.09454
589.74338
590.49225
590.40328
590.43017
589.70452
590.37356
591.00516
588.8139
589.08916
603.388
603.20573
606.9771
616.97164
607.33519
607.9057
607.47858
605.32809
606.0753
610.48061
618.67352
609.98613
609.96883
610.47936
607.78529
603.3212
603.34212
607.61855
609.84856
609.38775
618.47416
607.98607
608.20273
604.55061
589.80386
590.58364
590.02523
590.39068
588.41178
587.91249
603.55149
607.71114
608.32967
618.20307
607.92368
603.58316
607.54654
605.70151
623.43663
624.72914
623.75022
621.8994
623.2695
622.78297
623.89554
646.10915
671.63023
672.57588
671.10077
645.43844
646.51157
647.57779
645.87609
671.84396
672.91122
671.17079
645.87625
646.26222
671.7356
671.97294
646.40819
624.06458
605.38287
605.81955
605.19738
605.74988
605.54119
604.44487
623.14919
625.1703
626.03375
623.99764
625.07309
626.16067
606.1348
606.06643
603.67573
603.90257
604.44409
605.00467
606.32096
624.37427
623.90977
626.30565
627.18554
629.51153
614.352
606.89052
604.6711
604.26529
604.12583
604.53033
606.67914
614.14669
613.78504
613.6574
613.74067
613.96221
630.15754
630.20996
628.29201
628.11029
607.59439
590.51344
590.43068
589.32405
582.46028
579.35343
578.70342
578.68165
579.32502
582.38708
583.28694
584.86174
585.69795
585.80585
584.99148
583.60891
582.75263
579.78323
579.16144
579.1584
579.77767
582.75999
583.62685
585.08317
585.91079
585.91033
589.64668
590.48451
590.17202
588.37136
588.7553
590.75526
590.35629
590.36875
590.77478
588.74229
588.38291
590.14611
590.4593
589.62543
585.86063
585.77011
584.91044
583.33283
582.39215
579.28114
578.61636
578.67599
579.35593
582.53348
583.47551
584.94559
585.80069
585.74181
584.89864
583.37601
582.94502
580.71055
574.86049
565.99368
556.58049
550.7085
550.74801
556.66385
566.07914
574.89952
580.7784
583.04899
583.67514
589.71238
590.96686
590.90353
590.88319
591.07278
588.55909
579.86008
582.81066
581.54897
577.71853
566.24739
558.64124
552.33243
544.9973
539.34574
534.26688
531.90915
531.88967
534.21577
539.26308
544.884
552.1927
558.53531
566.08507
552.24701
544.6897
535.81794
529.14804
522.75289
519.91617
519.93767
522.80891
529.24585
535.95887
544.8717
552.3878
545.16262
557.05644
571.28152
576.42822
575.42188
579.24538
579.24388
588.54807
591.06475
590.87731
590.89607
590.95656
589.68782
582.79458
579.856
576.43149
575.41842
569.36405
569.36336
551.34742
534.63378
539.62527
529.50638
536.09824
526.47061
517.67704
510.2636
506.31546
506.29031
510.19737
517.56046
526.29396
535.87301
544.99172
556.81805
539.40998
529.23485
517.59447
506.2465
497.01447
491.88232
491.91377
497.10336
506.39781
517.81359
510.50496
523.18029
520.3604
532.33388
532.32196
551.35463
534.61318
523.14012
520.34043
506.57646
506.60418
492.0566
497.20538
486.14101
479.8223
479.78498
486.03014
497.01962
510.24631
522.85774
534.37987
551.01208
532.05391
520.01476
506.32395
491.85988
479.74197
472.78982
472.83177
479.86072
479.81422
492.01993
497.11271
510.44385
517.75212
529.47097
539.60678
557.08372
571.29556
577.71741
581.52441
583.0195
583.64695
585.08882
585.7794
584.28405
580.76504
574.95285
566.31914
552.45602
545.17557
536.10144
526.4574
517.65916
506.31765
497.0003
486.03591
479.70194
472.7841
472.74578
479.70478
491.82771
506.30405
519.99762
532.04369
551.01679
534.36271
522.82966
510.2002
496.95053
485.94031
479.67541
491.77985
491.8054
506.29647
510.2453
522.89297
529.32075
536.02539
544.95402
552.41354
558.69836
566.26719
556.93324
545.06453
539.43228
534.36157
532.02478
520.03683
520.02442
506.28422
510.19313
496.9323
506.18463
517.55509
529.21357
539.3979
556.84476
545.00954
535.89275
526.306
517.56706
529.25262
522.86079
534.33793
532.01995
551.11538
551.12363
569.20378
571.15579
577.66332
580.73619
582.98943
585.7735
586.6695
593.25727
592.14485
588.93711
587.78916
581.39751
580.63
580.64011
581.40728
587.83788
588.99856
592.08382
585.03401
585.71491
586.60245
585.67932
582.84888
581.27419
576.00156
574.92942
574.92815
575.99258
581.32942
582.90246
585.66809
586.58559
585.68194
584.16592
580.63154
577.43021
570.76472
568.7363
568.76527
570.81267
577.42696
580.61157
584.19468
590.17154
592.07152
588.8369
587.64712
581.10199
580.30116
580.28448
581.07817
587.69223
588.88938
592.05976
593.20774
599.93369
592.0866
590.15703
586.76105
595.88623
584.10483
576.87235
587.27197
575.31895
557.11472
562.87356
572.1144
581.18663
586.84165
588.97638
595.96818
587.80887
581.40937
577.58562
571.13283
576.24471
575.21177
569.16096
569.15424
575.19598
576.22787
571.13558
577.56038
566.15418
558.60337
552.29548
544.98369
539.38436
556.89843
566.20364
574.90783
580.66536
582.86743
581.34341
587.71976
581.37671
580.60765
580.62853
581.40284
587.62104
577.23725
584.24508
572.22966
561.99529
562.79802
564.40797
558.38246
556.23223
548.4016
556.28462
558.40643
553.37078
542.38085
547.60751
547.69495
542.88405
543.47194
547.55196
537.45024
532.63425
538.75106
529.22648
538.80944
547.80969
563.13963
547.68835
547.64694
542.44947
537.53395
543.57624
543.03579
532.7224
525.75572
537.16477
557.45294
575.7243
575.7094
587.59112
577.22102
584.18507
595.85256
588.87138
586.74982
581.1476
572.22496
563.11983
557.44382
535.16532
535.17969
534.21461
535.92184
535.78162
529.35386
527.28677
523.16189
509.15386
513.08912
520.555
524.58624
533.29081
524.54622
520.52046
508.83824
512.27702
502.48152
516.95852
529.23836
535.79824
536.99195
535.00324
534.09596
535.63959
527.1833
523.05772
525.64707
513.03852
509.11771
512.98559
497.08906
494.14452
499.38697
488.08588
499.38975
502.48847
517.01478
513.02087
497.06216
494.12166
481.62007
484.00178
490.71329
484.04334
481.66747
474.45147
476.54093
478.80758
486.65094
500.32839
517.21366
521.26841
529.00218
537.79833
542.25581
532.94742
519.93562
532.99914
529.05062
516.08744
505.916
509.43449
525.27837
520.88251
503.62099
507.15613
525.99754
544.61024
577.45575
583.30325
591.80828
600.04803
589.80835
581.91167
573.38639
567.97589
568.00394
587.295
575.34698
576.90844
584.0798
595.82238
586.70867
581.16418
572.16253
562.93557
557.15066
535.02658
534.11625
535.66907
535.83834
537.03598
525.69328
523.07873
527.20468
529.27886
537.50407
543.5245
542.95813
547.77763
547.66257
547.60305
542.44561
538.85293
532.712
520.61189
513.09408
509.14257
513.00629
517.00525
502.54881
497.11961
494.17533
499.46639
508.96186
512.36953
524.61933
533.38013
529.36306
520.72229
524.70062
517.15566
502.60597
490.79262
484.0792
481.70349
488.18927
481.7268
474.4938
476.58076
484.0957
497.19142
494.28646
499.5462
513.2934
509.37134
513.17498
527.51026
529.56295
537.70194
542.58807
553.47623
558.47092
556.34489
562.08518
572.24068
562.8612
564.47684
558.47709
556.40661
548.54425
538.98822
547.96229
563.15711
547.79434
547.76222
543.69714
543.22346
532.93919
526.01721
537.39324
557.50257
536.08605
535.95392
534.39383
535.42882
523.44175
523.41228
509.34291
494.24084
481.67833
474.43969
474.40427
481.57941
494.08247
509.1313
523.13728
527.25067
534.18538
535.73163
535.87808
537.141
525.7163
529.29863
537.44726
543.49544
543.00531
532.67194
538.77842
547.7887
547.60556
547.54837
542.36053
533.18522
524.47508
516.93126
512.99217
497.02278
502.37792
499.30705
513.03162
520.48525
508.73987
512.13255
524.42406
520.4671
529.18701
538.78268
535.91599
544.79125
552.32466
556.32972
558.4032
564.39034
553.37318
548.45378
556.31361
572.16522
562.04513
562.78082
558.36428
547.55382
542.35502
547.49344
537.42995
532.67572
542.97885
562.97402
547.76977
543.4222
535.72799
529.20409
516.81111
502.30708
490.56827
483.95322
476.48574
483.88327
481.53665
487.98063
499.26272
493.99704
496.89451
512.82532
509.04316
512.96892
525.68293
523.09209
527.14678
535.56664
534.02916
557.25337
537.08651
535.10635
535.11165
523.10201
509.05341
494.01964
481.56222
483.91251
476.51747
484.03499
490.6424
488.06578
499.43637
502.47857
497.14622
513.14178
517.05924
513.21638
520.63127
508.84689
499.32149
502.35832
496.91446
512.83783
516.84422
513.01115
520.53567
524.47254
512.21299
524.57514
533.2529
529.29615
538.94083
532.87225
525.96578
529.50013
527.47611
535.89889
534.36002
557.49622
535.41393
537.36347
536.03696
543.6061
537.60581
547.64736
542.48758
547.70396
563.13849
543.18568
547.93316
556.4419
548.57661
538.85869
532.72221
525.70726
529.22177
527.15502
535.57386
534.03466
557.25487
537.10208
535.7451
543.43903
537.45733
547.50964
542.39272
547.58293
562.98384
543.01606
547.8179
556.40315
572.18785
558.43718
553.46575
564.44322
558.46809
572.2436
562.12157
562.83271
581.13558
589.73677
581.98961
573.58459
568.29328
568.30713
573.63111
582.0298
589.77391
581.93221
573.42914
583.33998
577.48423
544.64433
557.27812
567.81459
594.64308
609.47268
623.84515
625.79224
623.77645
623.30758
605.64972
604.95917
605.32077
623.147
624.62264
624.6987
622.95268
621.87055
622.98017
624.75647
625.48648
605.61475
605.72794
602.02388
602.14383
623.93651
625.50572
625.75963
625.17081
626.00888
604.04965
589.46902
590.49498
591.19001
608.05248
606.3215
606.64111
627.21853
627.2498
606.4484
590.07953
587.99219
587.94755
590.02234
590.1749
590.26924
607.44351
607.37285
628.22156
630.12719
629.95993
627.94196
607.44289
590.40582
590.31704
589.21742
589.38486
590.38692
591.03799
590.76653
590.23892
589.71827
589.54916
589.64275
588.49821
588.50173
589.67241
589.64583
589.90773
590.334
590.52307
588.89488
589.02941
590.26797
590.33764
590.4887
590.95609
591.04739
591.03407
590.9004
590.34949
590.09564
589.94704
588.67907
588.58058
603.21139
603.42834
607.48848
608.10581
607.50433
617.36017
606.97375
623.82782
624.2309
626.99075
629.2804
649.4675
650.35251
650.76277
650.85336
650.57177
649.7256
673.77126
700.96347
730.97526
732.47287
731.29069
730.2638
699.69377
700.87968
699.3032
729.99901
731.48083
733.35548
730.77875
700.12183
701.21959
699.23689
729.86927
730.41862
699.83209
700.08802
730.6506
733.6396
733.10797
731.8287
735.10237
704.3963
702.71293
674.1654
675.71404
649.01226
646.93937
647.93283
674.1011
674.57399
648.29684
650.2887
650.08716
676.90235
677.24096
706.16336
703.02799
702.50274
705.71423
736.52346
737.06299
737.72794
738.7288
737.87033
736.00183
733.54013
703.00266
700.90259
672.97445
647.49286
648.23092
674.60609
676.41648
674.46962
649.28574
650.04911
651.25709
650.57359
675.81068
674.57071