/*--------------------------------*- C++ -*----------------------------------*\
  =========                 |
  \\      /  F ield         | OpenFOAM: The Open Source CFD Toolbox
   \\    /   O peration     | Website:  https://openfoam.org
    \\  /    A nd           | Version:  7
     \\/     M anipulation  |
\*---------------------------------------------------------------------------*/
FoamFile
{
    version     2.0;
    format      ascii;
    class       volScalarField;
    location    "440";
    object      omega;
}
// * * * * * * * * * * * * * * * * * * * * * * * * * * * * * * * * * * * * * //

dimensions      [0 0 -1 0 0 0 0];

internalField   nonuniform List<scalar> 
24866
(
434.20719
442.17437
443.51239
505.56771
565.84453
564.66481
560.06414
566.03451
566.72817
559.48511
562.59959
562.6378
559.58489
566.79204
565.96693
560.29261
564.13952
566.09635
564.31664
562.74007
555.39844
567.91584
581.73024
575.30954
561.73229
551.89267
563.17227
576.25423
575.04446
557.21446
565.05175
564.60969
564.60879
565.05188
557.23628
575.05178
576.31316
563.23001
551.83269
561.6632
575.2921
581.73148
567.92266
555.39971
562.80241
564.2788
566.18355
564.06175
560.34661
565.82941
566.89904
559.54703
562.60063
562.63096
559.6271
566.67694
566.10135
559.95553
564.81558
565.71432
569.42396
566.27558
569.48324
569.94375
561.60869
565.43058
572.32046
571.15237
561.83263
562.1422
562.16777
561.87948
571.17229
572.32299
565.45646
561.51731
569.49893
569.26298
565.25684
567.58815
567.18246
555.71149
557.48594
563.75532
565.82117
573.04391
565.90128
558.90123
567.05242
574.0208
565.85373
559.24786
564.18105
564.59328
563.87378
562.0127
560.41776
562.89272
562.02093
563.34168
563.04231
563.45539
562.95416
563.67615
564.13955
564.14618
563.89681
564.29898
563.60856
562.7316
557.07876
568.82916
568.1697
565.10464
561.22209
563.13202
563.39945
563.73322
564.15976
564.40813
564.35682
563.99565
564.35464
563.78899
563.14694
562.7453
560.97006
561.89411
562.28837
563.12588
563.93706
564.52581
564.84598
564.68592
564.74778
564.54368
564.16194
563.90008
563.40091
563.61161
561.22543
557.08312
568.82812
568.1679
550.79378
551.16058
510.68085
503.39788
504.3901
504.39031
503.39755
496.1925
499.75576
555.68977
555.36826
501.56539
502.18447
491.07699
500.06221
499.26482
487.55279
483.11717
493.51224
501.39162
504.11796
505.58836
502.86301
498.15935
503.98401
504.41253
495.6483
496.10191
496.04848
495.5215
504.31898
504.00665
498.02863
503.25205
511.76481
512.62922
552.01908
552.37716
510.07648
495.5065
510.97811
504.26462
498.68555
562.24364
563.28353
562.24456
563.34109
562.69046
560.91053
561.87373
562.26373
563.09447
563.89342
564.46725
564.77701
564.84909
564.91788
564.75067
564.41294
564.15186
564.18632
564.30239
565.85871
562.7336
501.68238
504.2684
542.84347
555.70229
499.7317
496.1962
439.73716
441.98275
442.57115
442.57097
441.98109
439.73171
438.55186
439.85764
439.84047
435.85591
439.07133
438.71021
433.93815
430.94179
437.82419
440.91833
442.58518
443.42007
441.95831
441.45288
442.2184
442.70416
439.62923
439.60926
439.59513
439.54409
442.59918
442.17576
441.3444
392.59121
392.81286
393.31501
393.29373
392.85632
442.23645
503.35298
497.99556
504.07359
504.27829
495.68415
496.09224
496.0531
495.59524
504.41171
503.87809
498.22407
502.81127
505.65734
504.10321
501.4421
493.52531
483.13112
539.47565
560.30053
552.86152
499.2972
500.09291
491.09047
502.16394
501.52051
555.41512
544.09755
511.05705
506.22946
492.75984
508.86635
513.24666
512.41193
555.92957
574.04006
567.06411
558.89894
559.25139
565.81919
564.60038
564.14797
564.36459
564.69168
564.36267
564.53104
564.46954
564.18173
563.67628
563.07765
563.03358
563.33084
563.67825
563.89788
563.94379
563.79836
563.46728
564.00585
563.68707
563.88388
563.7579
557.49731
562.02772
562.96788
562.90913
563.05544
563.15666
563.13323
563.10148
563.0817
563.0347
563.3419
562.69753
562.2741
562.29626
562.75402
563.35563
562.03997
565.27429
560.43767
555.73039
567.22182
567.58237
550.16314
511.07319
509.15275
549.69522
506.84733
508.91708
493.12145
432.4985
440.95764
437.84043
430.95249
433.95697
487.60548
487.14662
503.39252
503.7194
544.0171
541.10881
504.89413
490.62346
508.61083
429.59182
438.72097
439.06896
435.84996
439.85378
439.86807
438.55197
389.88393
391.19129
392.46028
392.60325
392.60315
392.45905
391.1879
389.88442
390.39581
390.48679
388.40933
390.18174
389.83714
387.28175
385.68432
390.06301
391.84426
392.71151
393.24266
392.71944
392.69068
392.91772
393.27317
391.79745
391.91526
391.87185
391.69732
393.1783
392.85719
352.33614
352.29918
352.28419
352.50971
352.49991
352.31604
352.31376
392.59822
441.33386
442.23457
442.6257
439.64639
439.6066
439.60769
439.60991
442.68275
442.14218
441.47883
441.93086
443.4643
442.58745
392.71738
391.87251
390.07814
385.69504
387.298
389.84758
390.18344
388.40719
390.49329
390.39898
350.27901
350.00295
351.11496
351.8803
351.95201
351.95209
351.87939
351.11261
350.00276
350.27642
350.3748
349.19422
350.30429
350.02745
348.41646
347.44987
350.35869
351.53821
352.10628
352.46406
352.25665
352.3894
352.402
352.64571
351.88412
351.98779
351.95587
351.80504
352.56205
318.97392
318.82911
318.89071
318.76297
318.86068
318.85699
318.78712
318.90785
318.86818
319.01332
352.60404
393.2165
391.80332
391.9151
391.88583
391.74986
393.2428
392.85835
392.69637
392.70038
393.2679
352.4775
352.11176
351.55805
350.37129
347.45931
348.42921
350.03591
350.30625
349.19338
350.37957
317.25115
317.13599
317.00108
317.90467
318.35883
318.40981
318.40986
318.35813
317.90297
317.00056
317.13384
317.24753
316.57057
317.28681
317.03973
315.93997
315.34944
317.35393
318.16125
318.57421
318.82999
318.76688
318.97063
318.89294
319.04542
318.66239
318.74483
318.71942
318.59857
290.90349
291.06903
290.98545
291.08782
290.9134
290.9453
290.94464
290.93215
291.10496
291.01858
291.10438
290.95306
318.66127
351.88526
351.98967
351.96933
351.84637
352.61234
352.35246
352.38393
352.2412
318.75371
318.83649
318.57843
318.1752
317.3641
315.35747
315.95001
317.04664
317.28881
316.57047
289.30258
289.69112
289.57292
289.53196
290.26297
290.52934
290.56973
290.56971
290.52877
290.26168
289.53129
289.5711
289.68834
289.30229
289.76652
289.53956
288.75543
288.40517
289.83576
290.4046
290.72321
290.91868
290.92909
291.15679
291.04414
291.1299
290.95559
291.02699
291.00645
267.72635
267.6367
267.6914
267.64875
267.7616
267.5809
267.5786
267.5794
267.59575
267.77758
267.67673
267.72241
267.67641
267.74451
291.02865
318.74706
318.7312
318.6313
319.0143
318.85195
318.96
291.14448
290.91785
290.92139
290.72634
290.41463
289.84397
288.41197
288.76344
289.54524
289.76844
266.64153
266.33975
266.56055
266.45307
266.47152
267.06402
267.22369
267.25759
267.25754
267.2232
267.06301
266.47079
266.45152
266.55833
266.33923
266.63972
266.43338
265.85923
265.6623
266.71557
267.13385
267.39141
267.54984
267.59827
267.81977
267.70111
267.74324
267.67977
267.74318
247.9542
247.94007
247.86242
247.86272
247.84512
247.95271
247.78736
247.76803
247.76946
247.79934
247.96713
247.86878
247.88967
247.89479
247.95536
247.94785
267.73492
291.01632
290.92996
291.10219
291.01051
267.67355
267.80755
267.58877
267.5506
267.39378
267.1413
266.7223
265.66809
265.86573
266.4381
246.80022
246.98213
246.78756
246.9125
246.82315
246.87584
247.35683
247.45895
247.48847
247.48841
247.45854
247.35602
246.87512
246.82181
246.91068
246.78691
246.98045
246.79624
246.36872
246.26768
247.06289
247.3857
247.60116
247.73495
247.80196
248.00101
247.89098
247.907
247.89863
230.86768
230.91565
230.90374
230.83706
230.81328
230.80969
230.90496
230.76342
230.73646
230.73813
230.77325
230.91779
230.82982
230.83661
230.86373
230.91666
230.91074
230.85297
247.88102
267.65864
267.71915
247.88626
247.86832
247.98965
247.79397
247.73476
247.60304
247.39143
247.06851
246.27267
246.37409
229.57425
229.89512
230.0552
229.93103
230.0011
229.93137
230.0012
230.39209
230.46387
230.49011
230.49005
230.46352
230.39142
230.00052
229.93021
229.99959
229.93031
230.05363
229.89172
229.56974
229.5273
230.13944
230.3993
230.58354
230.69933
230.77388
230.94475
230.84948
230.85119
216.00032
216.0262
216.06713
216.05701
216.00012
215.96771
215.97118
216.05199
215.93518
215.90579
215.90747
215.94338
216.06334
215.98842
215.98792
216.02232
216.06801
216.06331
216.01385
215.9851
230.83342
230.83073
230.93451
230.76715
230.69871
230.5851
230.40387
230.14421
229.53164
214.91406
214.92165
215.16542
215.30472
215.22705
215.26565
215.21371
215.28985
215.60798
215.66344
215.68702
215.68696
215.66314
215.60742
215.28921
215.21269
215.26437
215.22631
215.30327
215.16248
214.91779
214.91025
215.38876
215.60448
215.76416
215.86577
215.94153
216.0847
216.0056
202.93918
202.93116
202.95894
202.99363
202.98497
202.93655
202.90295
202.90941
202.9762
202.88159
202.85259
202.85421
202.88852
202.98624
202.9243
202.9205
202.95524
202.9944
202.99065
202.9485
202.91809
202.92599
215.98994
216.0756
215.93582
215.86497
215.76548
215.60822
215.39287
202.40221
202.02305
202.01044
202.19716
202.31757
202.27073
202.29135
202.25414
202.3302
202.58981
202.63582
202.65718
202.65712
202.63556
202.58933
202.32962
202.25325
202.29025
202.26999
202.31623
202.19459
202.00711
202.01968
202.39864
202.58138
202.72101
202.81096
202.88438
203.00311
191.3887
191.33796
191.32944
191.35578
191.38509
191.37763
191.33642
191.3049
191.31216
191.36652
191.2905
191.2634
191.26491
191.29644
191.37541
191.3251
191.32021
191.35229
191.38577
191.38276
191.3469
191.31817
191.32674
191.38158
202.99506
202.87949
202.81011
202.72214
202.58449
191.02075
190.86441
190.56061
190.53687
190.68103
190.78474
190.75841
190.76894
190.7433
190.81587
191.02856
191.06845
191.08795
191.08791
191.06823
191.02816
190.81534
190.74252
190.76798
190.75769
190.78351
190.67878
190.53398
190.55762
190.8613
191.01813
191.14107
191.22119
191.29037
180.92231
181.00404
180.96428
180.95634
180.97991
181.00465
180.99818
180.96306
180.93486
180.94184
180.98571
180.92477
180.90029
180.90167
180.92992
180.99362
180.95319
180.94828
180.97667
181.00525
181.00282
180.97232
180.94657
180.95464
180.99773
180.91861
191.28614
191.22034
191.14204
180.78735
180.67988
180.54459
180.29845
180.2691
180.38125
180.47043
180.45772
180.46281
180.44602
180.51348
180.68865
180.72408
180.74203
180.74198
180.72389
180.68831
180.51302
180.44535
180.46199
180.45705
180.46931
180.37927
180.26656
180.2958
180.54187
180.67765
180.78654
180.85825
171.53612
171.59477
171.66312
171.63225
171.62531
171.64578
171.66666
171.661
171.63102
171.60643
171.61267
171.64795
171.59906
171.57745
171.57869
171.60355
171.65501
171.6227
171.61825
171.64279
171.6672
171.66521
171.63925
171.61681
171.6239
171.6575
171.59148
171.53528
180.85742
180.91758
180.99005
180.79288
180.83998
180.94065
180.4471
180.54866
180.69155
180.75137
180.67674
180.60257
171.32592
171.17865
171.24043
171.38557
171.41747
171.4341
171.43404
171.41732
171.38532
171.24008
171.17813
171.18813
171.18583
171.18912
171.11173
171.02335
171.0549
171.25639
171.37473
171.47167
163.04763
163.10573
163.15908
163.21668
163.19289
163.18705
163.2045
163.22207
163.21708
163.19143
163.17028
163.17566
163.20404
163.16471
163.14593
163.14711
163.16872
163.2104
163.18461
163.18077
163.20169
163.22254
163.22093
163.19883
163.17959
163.18558
163.21164
163.15613
163.10491
163.04814
171.47233
171.37663
171.25876
171.05721
171.02553
171.11342
171.19007
171.18638
171.18877
162.79924
162.79409
162.8502
162.97127
163.00018
163.01566
163.01567
163.00014
162.97119
162.85009
162.79388
162.79895
162.79771
162.79514
162.72857
162.65878
162.69068
162.8573
162.96099
155.31492
155.39262
155.44513
155.49344
155.54238
155.52415
155.5193
155.53404
155.54882
155.54437
155.52235
155.50427
155.50886
155.53175
155.49999
155.4839
155.48498
155.5036
155.53754
155.51692
155.51365
155.53139
155.54922
155.5479
155.52906
155.51268
155.51765
155.53779
155.4907
155.44423
155.39287
155.31602
162.96255
162.85928
162.69257
162.6605
162.72982
162.79574
162.79795
155.17227
155.17334
155.17185
155.22263
155.32438
155.35068
155.36519
155.36528
155.35089
155.32471
155.22311
155.17238
155.17388
155.17285
155.16652
155.10913
155.05361
155.0847
155.22374
148.25485
148.33508
148.4049
148.45239
148.49596
148.538
148.52403
148.51997
148.53242
148.54489
148.54086
148.52183
148.5063
148.51027
148.5289
148.50302
148.4894
148.49041
148.50634
148.53424
148.51764
148.51479
148.52988
148.5452
148.54413
148.52799
148.514
148.51815
148.53371
148.49329
148.45125
148.40465
148.33537
148.25514
155.22513
155.08589
155.0545
155.10951
155.16627
148.20039
148.20873
148.21001
148.21112
148.25713
148.34338
148.36732
148.38107
148.38136
148.36814
148.34473
148.25908
148.2135
148.21258
148.2114
148.20271
148.15302
148.10837
148.13793
141.76594
141.86473
141.93483
141.99749
142.04032
142.07942
142.11614
142.10529
142.1017
142.11248
142.12312
142.11942
142.10273
142.08908
142.09269
142.1081
142.08652
142.07513
142.07609
142.08962
142.11311
142.09952
142.09687
142.11
142.12335
142.12247
142.10846
142.09623
142.09986
142.11199
142.07659
142.03862
141.99621
141.9335
141.86273
141.76253
148.13767
148.10746
148.15141
141.76909
141.81152
141.8212
141.82276
141.82551
141.86747
141.94143
141.96303
141.97636
141.97713
141.9653
141.94515
141.87281
141.83216
141.83004
141.82875
141.81864
141.77517
141.73847
135.87084
135.89544
135.97873
136.03848
136.09421
136.13247
136.16719
136.20024
136.19147
136.18797
136.19796
136.20737
136.20393
136.18884
136.17611
136.17969
136.1928
136.17377
136.1644
136.16533
136.17674
136.19758
136.18612
136.18337
136.1955
136.20752
136.20681
136.19427
136.18289
136.18634
136.19605
136.16389
136.12964
136.09089
136.03387
135.972
135.8854
135.85749
141.73358
141.83958
141.89453
141.95963
141.98349
141.95929
141.92872
136.03739
135.93909
135.97789
136.04234
136.06134
136.07481
136.07658
136.06677
136.05117
135.99054
135.95501
135.95325
135.95228
135.94136
135.90251
130.47225
130.44222
130.46242
130.53133
130.57901
130.6273
130.66062
130.69077
130.72212
130.71446
130.71066
130.7212
130.73017
130.72693
130.71257
130.69937
130.70323
130.71485
130.69617
130.68859
130.6895
130.69907
130.71948
130.70936
130.70622
130.71873
130.73025
130.72969
130.71779
130.70591
130.70956
130.7177
130.68654
130.65565
130.62012
130.56803
130.51534
130.4393
130.41202
130.43743
135.88682
135.92387
135.93416
135.93579
130.48174
130.48417
130.52076
130.57819
130.59387
130.60835
130.6121
130.60561
130.59721
130.54795
130.51859
130.51946
130.5198
130.50844
125.46831
125.43232
125.39966
125.41253
125.46625
125.49818
125.53737
125.56479
125.58983
125.62187
125.61446
125.6101
125.6231
125.63259
125.62947
125.61482
125.59928
125.60365
125.61441
125.59329
125.58721
125.58811
125.59614
125.61891
125.60952
125.60579
125.62062
125.63265
125.63222
125.61994
125.60568
125.60976
125.61703
125.58405
125.55614
125.52341
125.47572
125.43341
125.36553
125.33847
125.36242
125.39221
130.47025
130.4806
125.40213
125.40189
125.40157
125.43678
125.48936
125.50042
125.51718
125.52446
125.52369
125.52695
125.49046
125.4698
125.47666
125.47993
120.79506
120.78328
120.74459
120.70406
120.70454
120.73978
120.75011
120.77699
120.79688
120.816
120.85142
120.84372
120.83887
120.8566
120.86777
120.86478
120.84873
120.82864
120.83342
120.84368
120.81696
120.81198
120.81285
120.81972
120.84802
120.83899
120.83478
120.85417
120.86786
120.86755
120.85375
120.83486
120.8393
120.84605
120.80803
120.78262
120.75237
120.70882
120.67884
120.61751
120.59059
120.61568
120.64367
120.65275
120.65004
120.6447
120.67895
120.7283
120.73298
120.75345
120.76639
120.77515
120.79655
120.77657
120.76934
120.78666
116.43161
116.44746
116.43559
116.39136
116.33754
116.31778
116.32779
116.30913
116.31896
116.3293
116.34186
116.38292
116.37526
116.37077
116.39517
116.40908
116.40629
116.38797
116.36158
116.36602
116.37552
116.34074
116.33626
116.33708
116.34334
116.37956
116.37114
116.36721
116.39294
116.40911
116.40892
116.39273
116.36738
116.37136
116.37728
116.33157
116.30791
116.27989
116.24062
116.22478
116.16973
116.14371
116.17201
116.19904
116.20693
116.20093
116.18878
116.22153
116.26805
116.26474
116.28989
116.31084
116.33427
116.38163
116.38523
116.39899
112.37271
112.42399
112.4482
112.4364
112.38543
112.31459
112.26265
112.23498
112.18003
112.16748
112.16694
112.17347
112.22019
112.2152
112.21351
112.24437
112.26096
112.25855
112.23828
112.20613
112.20821
112.21495
112.17279
112.16819
112.16891
112.17507
112.21848
112.2126
112.21099
112.24258
112.26091
112.26079
112.24247
112.21105
112.21237
112.21524
112.16215
112.13918
112.11309
112.07861
112.07661
112.0306
112.00834
112.03911
112.06404
112.07017
112.06138
112.04304
112.07208
112.11346
112.10238
112.13159
112.16192
112.20551
112.28638
112.3262
108.64535
108.74566
108.81504
108.84331
108.83145
108.77797
108.69125
108.58586
108.49526
108.39722
108.35944
108.3495
108.35188
108.40005
108.40556
108.4118
108.44456
108.46192
108.45994
108.44012
108.40727
108.40252
108.39998
108.35678
108.3529
108.35349
108.35857
108.40275
108.4059
108.4109
108.44349
108.46188
108.4617
108.44337
108.41078
108.40474
108.39773
108.34314
108.32095
108.29643
108.26622
108.27406
108.24802
108.23681
108.26171
108.27755
108.28037
108.27236
108.25367
108.27386
108.30193
108.28692
108.31792
108.35585
108.42257
108.54417
105.18666
105.40847
105.59939
105.67996
105.69886
105.68676
105.64435
105.54879
105.35388
105.14144
104.98508
104.92942
104.91742
104.91464
104.95154
104.98836
105.00827
105.03232
105.05775
105.05848
105.03191
105.00713
104.99056
104.95971
104.93116
104.93585
104.93619
104.93227
104.96147
104.99283
105.00934
105.03212
105.05777
105.05967
105.03405
105.00898
104.99045
104.95445
104.91386
104.89997
104.87662
104.84387
104.8514
104.87987
104.89418
104.8881
104.8777
104.88074
104.87751
104.87085
104.87112
104.86176
104.85536
104.88837
104.92616
105.00898
101.87376
102.13102
102.69675
103.07302
103.09377
103.07151
103.06094
103.06169
103.02634
102.64725
102.09005
101.85238
101.75035
101.74806
101.80857
101.73045
101.94155
101.94708
101.94281
102.08069
102.07977
101.94296
101.94955
101.94919
101.74815
101.83993
101.7948
101.79491
101.84031
101.74902
101.95012
101.94932
101.94306
102.08059
102.08034
101.94398
101.94962
101.94713
101.74092
101.82181
101.75832
101.73578
101.75568
101.68813
101.9639
101.88655
101.81257
101.79797
101.92079
101.81338
101.82556
101.83244
101.64989
101.75472
101.72082
101.74742
99.355416
99.393736
99.660676
100.62772
101.38251
101.19913
101.13637
101.12472
101.16967
101.34123
100.58315
99.625788
99.371263
99.363612
99.358146
99.393086
99.373366
99.465137
99.480435
99.487908
99.492816
99.493541
99.491436
99.485925
99.475757
99.397525
99.432715
99.430051
99.430695
99.431683
99.396115
99.474909
99.485816
99.487374
99.49269
99.494132
99.49119
99.487283
99.4744
99.387172
99.418559
99.390265
99.389296
99.349554
99.401011
99.915749
99.874866
99.484683
99.38971
99.381128
99.381619
99.378574
99.363783
99.302801
99.336265
99.335642
97.092357
97.078156
97.156707
97.425701
97.346725
97.205541
97.202204
97.166372
97.197907
97.29508
97.419849
97.114361
97.117293
97.088434
97.204679
97.282715
97.186378
97.164821
97.382457
97.27383
97.275916
97.388897
97.170243
97.200054
97.316808
97.243797
97.199284
97.204002
97.236874
97.318327
97.19505
97.169596
97.379862
97.272869
97.27681
97.387411
97.166493
97.206697
97.294632
97.260086
97.132553
97.231768
97.138862
97.390275
97.002576
96.925291
97.308222
97.349709
97.19512
97.299942
97.096153
97.077871
97.241572
97.110981
97.058091
97.099266
97.218896
97.114046
97.071077
97.115239
97.162438
97.112537
97.056668
97.073578
97.164576
97.268775
97.147325
97.147439
97.308598
97.154509
96.960175
96.84951
97.001161
97.195553
97.230386
97.046094
96.864774
96.953641
97.158812
97.347223
97.091198
97.108082
99.37102
99.320324
99.760552
99.836314
101.25936
99.950413
99.862568
99.488759
99.880278
101.18912
99.816016
99.298834
99.326727
99.800014
99.759434
99.363558
97.250244
97.155056
97.207248
97.194112
97.19463
97.111433
97.248233
97.37556
97.116712
97.186537
99.358631
99.322454
99.765541
101.19729
99.83146
99.914242
99.840312
99.410476
99.482641
100.23537
101.38851
100.10399
100.09494
100.23922
99.882133
99.237551
99.24986
99.854294
100.13272
100.08561
101.34952
99.81687
99.897079
99.437399
97.23958
97.306103
97.214937
97.290091
97.057759
96.980476
99.372648
99.87409
99.957623
101.35246
99.896067
99.372974
99.840368
99.468006
101.90163
102.11142
101.90267
101.69038
101.92934
101.79851
102.0139
105.05157
108.52997
108.59513
108.45791
104.95987
105.04874
105.07195
104.98447
108.52079
108.60324
108.43732
104.9919
105.02778
108.49443
108.52197
105.04183
101.98519
99.408585
99.37907
99.295368
99.437409
99.235793
99.175356
101.7407
101.90874
101.97558
101.87704
102.01703
102.03136
99.327961
99.272318
99.0451
98.859091
99.019559
99.255934
99.553912
102.03674
101.84735
102.0712
102.3785
102.75986
100.70455
99.735283
99.387782
99.322632
99.303133
99.363161
99.693186
100.66391
100.59854
100.58042
100.59209
100.62822
102.83058
102.83292
102.46881
102.45525
99.660158
97.237939
97.106726
97.015428
96.815522
97.28037
97.336731
97.327395
97.264502
96.790445
96.701712
96.346171
96.380379
96.388287
96.352207
96.723976
96.811579
97.309936
97.368428
97.367186
97.308045
96.811314
96.722875
96.357936
96.393623
96.393452
96.865976
97.10097
97.215264
97.065518
97.126509
97.356834
97.272177
97.274163
97.360877
97.126477
97.070139
97.214479
97.100212
96.8668
96.39928
96.392101
96.356909
96.725772
96.8192
97.337596
97.406262
97.431839
97.369619
96.856723
96.762843
96.373418
96.4083
96.403524
96.370481
96.729514
97.280361
97.434365
97.870783
99.178329
100.95878
102.12428
102.1056
100.91229
99.125233
97.834988
97.420121
97.268948
96.730901
97.036663
97.128189
97.250522
97.233039
97.177186
97.219429
97.297013
96.81467
97.416376
97.730917
99.089215
100.4605
101.55105
103.32137
104.44255
105.73739
106.20495
106.21578
105.76289
104.48318
103.38223
101.61964
100.5217
99.154144
101.60914
102.90079
104.9422
106.25672
107.85511
108.44033
108.42925
107.8255
106.2097
104.87824
102.82351
101.53977
103.27172
100.81434
98.789713
98.262943
98.366755
97.351056
97.347707
97.216316
97.175641
97.231939
97.248212
97.125487
97.030678
96.805118
97.289368
98.253115
98.364149
99.039411
99.043661
101.93805
105.6133
104.35963
106.12939
104.83589
106.60881
108.46789
110.26349
111.21144
111.22002
110.29999
108.52667
106.67588
104.92538
103.35421
100.89801
104.45154
106.23332
108.51074
111.19
113.55886
114.89989
114.89236
113.52491
111.12453
108.42626
110.18792
107.70753
108.29003
106.07256
106.07789
101.93674
105.62614
107.71573
108.2967
111.11888
111.10881
114.8264
113.48434
116.45346
118.20201
118.2109
116.48611
113.54844
110.27625
107.82157
105.71822
102.04441
106.17372
108.40981
111.20496
114.90083
118.21638
120.17887
120.16986
118.17825
118.19124
114.83597
113.50606
110.20824
108.44698
106.14057
104.36798
100.80286
98.778033
97.714415
97.403825
97.252421
96.718353
96.357456
96.64352
96.722262
97.401387
97.811857
99.062478
101.51538
103.27193
104.83564
106.61934
108.48435
111.15855
113.55848
116.4927
118.24108
120.1877
120.19966
118.23354
114.90799
111.21146
108.4065
106.1711
102.03225
105.71485
107.82044
110.29259
113.57686
116.5265
118.25472
114.93448
114.92842
111.23117
110.29097
107.81206
106.19442
104.86463
102.79906
101.52566
100.4425
99.075849
100.84642
103.30819
104.4252
105.71862
106.18328
108.41253
108.41554
111.24123
110.30833
113.59026
111.20737
108.52044
106.22765
104.44066
100.87106
103.32927
104.90532
106.6733
108.52768
106.22575
107.83127
105.73043
106.18992
102.01667
102.01129
99.084535
98.817388
97.726721
97.408862
97.260827
96.644518
96.626531
97.631367
97.573032
98.385609
98.506909
99.580863
99.665264
99.667644
99.587654
98.518028
98.398069
97.58597
96.363211
96.656543
96.63578
96.655057
97.276412
97.43534
98.322697
98.444514
98.468562
98.355527
97.469374
97.311461
96.672828
96.651908
96.674624
96.761373
97.465329
97.799063
98.903611
99.180005
99.156261
98.868822
97.760442
97.428738
96.739683
97.523351
97.584521
98.4083
98.534039
99.642476
99.732304
99.758042
99.674038
98.566292
98.441086
97.603748
97.659936
98.513271
97.606139
97.545327
98.359182
99.55473
98.608019
99.796966
100.89421
100.00689
102.83661
101.70742
99.984812
98.698635
98.326064
98.409543
99.517065
98.531771
97.430909
97.755582
98.80493
98.261135
98.367693
99.067993
99.053359
98.357123
98.24252
98.782669
97.720624
99.105211
100.47856
101.57109
103.34403
104.44736
100.86826
99.10187
97.825263
97.399676
97.249476
97.401931
98.503693
99.561233
99.64655
99.657804
99.577455
100.78577
99.69688
98.566274
99.958573
101.31119
102.84802
104.08301
103.51048
102.2363
103.51113
102.22558
103.5078
104.16963
106.87645
106.25621
104.3187
105.20945
106.98653
107.98384
107.73536
106.94906
105.7906
107.41083
105.77196
104.28544
101.6415
106.23619
107.95907
106.86434
107.71306
106.97094
105.17784
106.92572
108.70095
106.67392
102.74965
99.896365
99.881003
100.77307
99.678408
98.534567
99.490372
98.383124
98.29758
98.66154
99.920566
101.62325
102.73937
107.04007
107.04352
109.26718
108.96717
110.75003
109.81207
110.19667
109.22056
112.01954
111.08078
109.26033
110.16831
108.28647
110.17928
109.27843
112.08566
113.18941
115.76857
112.06286
109.83723
108.99798
106.72541
107.0893
109.29854
110.78684
110.22839
109.25238
108.73634
111.10665
112.03496
113.01295
117.20841
115.93978
114.55221
117.60374
114.54005
115.76477
112.04404
112.99932
117.2132
115.94197
119.4054
120.88012
118.99683
120.86559
119.40092
121.45359
123.02678
124.76521
122.49071
118.6307
114.00919
113.04355
111.09464
109.11133
110.24931
112.37901
115.7237
112.359
111.08426
114.42527
117.13028
118.55862
114.34954
115.40634
120.13297
121.60563
116.26619
113.03443
105.41639
104.25108
102.57731
101.25494
99.789273
101.01623
102.64819
103.68907
103.66473
100.86386
99.981354
99.764985
98.571076
99.520617
98.325864
98.667844
99.937616
101.66426
102.81913
107.07721
109.28816
110.77296
108.98674
106.70165
108.70855
109.24085
110.21752
109.82331
107.68894
106.94909
105.17215
104.2633
106.21249
107.9427
106.83857
105.73485
106.90609
109.22144
111.06997
112.02816
113.00675
112.03469
115.74325
117.2075
115.93421
114.52127
112.02406
113.13229
110.13555
108.23399
107.35507
109.18346
110.10034
111.97451
115.70773
118.96365
120.86158
119.39287
117.57519
119.36977
121.4466
123.02285
120.85142
117.15492
115.87478
114.48258
111.00672
111.93487
112.92663
110.08678
109.70358
107.6192
106.77767
104.09924
103.44421
102.173
101.25237
99.916091
102.79125
104.0242
103.44734
102.15884
103.44118
105.68841
104.20428
101.59621
106.15925
107.87716
106.88939
105.08837
106.83106
108.59612
106.57144
102.69753
108.87117
110.64928
109.18181
106.94592
109.1121
109.11795
111.95025
115.88265
119.38582
121.46539
121.47781
119.42531
115.94827
112.02818
109.21564
110.19124
109.26958
110.75213
108.9752
106.67465
108.70166
109.81463
107.71393
106.96949
105.17049
106.92601
105.76293
104.27131
106.24011
107.96923
106.87158
108.30474
110.18823
112.06291
113.00982
117.2305
115.80163
114.57503
111.1024
109.27796
112.1111
113.2264
110.21198
109.29272
107.42221
105.76416
104.91229
102.85644
101.5629
102.18395
103.47462
104.05932
104.1425
103.47699
102.1906
99.93359
101.27404
102.82898
103.48726
106.25055
106.86963
107.98019
107.72995
106.93075
105.17673
101.65546
104.28504
106.9922
109.0114
109.84491
112.10556
115.82891
119.04405
120.90403
123.05609
120.92815
119.45144
117.65176
114.59436
115.98675
117.28363
113.07028
112.07668
111.13149
108.72724
109.24188
110.23304
110.80384
109.3248
102.7802
106.69739
107.06819
107.06211
109.2389
112.0671
115.98098
119.43891
120.92529
123.04514
120.86799
119.02127
117.62156
114.50851
115.74922
117.17426
112.94669
112.00303
111.02942
109.21428
112.06953
114.56507
115.81054
117.27981
113.06971
112.09712
111.11696
109.25375
110.18508
113.19475
110.14355
108.27115
107.37837
105.70168
106.84813
108.6079
109.7255
110.10567
110.67327
109.19768
102.69861
106.95419
106.58914
108.8998
106.91076
107.65065
107.9133
106.816
106.19479
101.59324
105.10304
104.21769
102.14267
103.42616
105.73408
106.90244
108.71088
109.83787
110.23089
110.80071
109.32197
102.77615
106.68729
109.0134
106.96772
107.70496
107.96275
106.85305
106.23748
101.63889
105.15917
104.25658
102.15089
99.914513
103.44603
104.09726
104.02682
103.44334
99.90012
101.2404
102.79643
98.652886
99.749072
100.94616
102.55367
103.57017
103.56783
102.55101
100.95521
99.760677
100.97385
102.6082
104.2165
105.39949
113.02068
109.89108
111.86267
105.61523
104.2337
102.21962
101.9793
101.83346
101.87707
99.452099
99.253179
99.340627
101.76393
102.06508
102.08786
101.78111
101.67801
101.71441
101.85045
101.9018
99.212079
99.266365
99.257969
99.28857
102.24268
101.96881
101.80029
101.83935
101.8382
98.886094
96.868561
97.1319
97.367391
99.759781
99.356343
99.370632
102.1485
102.18771
99.381202
97.095052
97.153117
97.143999
97.085702
97.185442
97.199751
99.633244
99.622723
102.45854
102.82149
102.79869
102.4275
99.634106
97.217575
97.087242
96.99544
96.851732
97.111007
97.336538
97.332863
97.151254
96.951657
96.858872
97.031479
97.222843
97.222263
97.032425
96.866356
96.969553
97.161192
97.317947
97.14785
97.185291
97.279215
97.161406
97.101223
97.12593
97.175934
97.175075
97.121102
97.086275
97.132946
97.233055
97.124247
97.07142
99.309819
99.366185
99.855956
99.944081
99.827542
101.24883
99.748326
102.00383
102.0079
102.34162
102.71547
105.47214
105.58236
105.6385
105.65071
105.61687
105.52054
108.79157
112.47012
116.50495
116.63207
116.54271
116.44435
112.33077
112.42419
112.27782
116.40863
116.53848
116.63402
116.47383
112.34917
112.43137
112.23634
116.35613
116.40837
112.29602
112.32607
116.43522
116.67258
116.63116
116.54581
116.67591
112.57699
112.52393
108.67406
108.72979
105.13373
105.07151
105.14429
108.69205
108.7344
105.17535
105.26225
105.20814
108.79403
108.85025
112.68176
112.56922
112.52439
112.63144
116.71655
116.7566
116.90551
116.69335
116.60126
116.67245
116.65863
112.56275
112.45475
108.67434
105.2052
105.16148
108.73358
108.82422
108.81445
105.39223
105.27621
105.36952