/*--------------------------------*- C++ -*----------------------------------*\
  =========                 |
  \\      /  F ield         | OpenFOAM: The Open Source CFD Toolbox
   \\    /   O peration     | Website:  https://openfoam.org
    \\  /    A nd           | Version:  7
     \\/     M anipulation  |
\*---------------------------------------------------------------------------*/
FoamFile
{
    version     2.0;
    format      ascii;
    class       volScalarField;
    location    "440";
    object      T;
}
// * * * * * * * * * * * * * * * * * * * * * * * * * * * * * * * * * * * * * //

dimensions      [0 0 0 1 0 0 0];

internalField   nonuniform List<scalar> 
24866
(
299.99997
299.99996
299.99996
299.99998
300
300
300
300
300
300
300
300
300
300
300
300
300
300
300
300
300
300
300
300
300
300
300
300
300
300
300
300
300
300
300
300
300
300
300
300
300
300
300
300
300
300
300
300
300
300
300
300
300
300
300
300
300
300
300
300
300
300
300
300
300
300
300
300
300
300
300
300
300
300
300
300
300
300
300
300
300
300
300
300
300
300
300
300
300
300
300
300
300
300
300
300
300
300
300
300
300
300
300
300
300
300
300
300
300
300
300
300
300
300
300
300
300
300
300
300
300
300
300
300
300
300
300
300
300
300
300
300.00001
300.00001
300.00001
300.00001
300
300
300
300
300
300
300
300
300
299.99999
300
299.99999
299.99998
299.99998
299.99998
299.99998
299.99999
299.99998
299.99999
299.99999
299.99998
299.99998
299.99999
299.99998
299.99999
299.99998
299.99998
299.99998
299.99998
299.99998
299.99998
299.99998
299.99998
299.99998
299.99998
299.99998
299.99998
299.99998
299.99998
299.99998
299.99998
299.99998
299.99998
299.99999
299.99999
299.99999
299.99999
299.99999
299.99998
299.99999
299.99999
300
300
300
300
300
300
300
300
300
300
300
300.00001
300.00001
300.00001
300.00001
300.00001
300
300
300
300
300
300
299.99999
299.99999
299.99999
299.99999
299.99998
299.99999
299.99996
299.99996
299.99996
299.99996
299.99996
299.99996
299.99996
299.99996
299.99996
299.99996
299.99996
299.99997
299.99996
299.99996
299.99996
299.99996
299.99996
299.99996
299.99996
299.99996
299.99996
299.99996
299.99996
299.99996
299.99996
299.99996
299.99996
299.99996
299.99996
299.99993
299.99992
299.99992
299.99992
299.99992
299.99996
299.99998
299.99998
299.99998
299.99998
299.99998
299.99998
299.99998
299.99998
299.99998
299.99998
299.99998
299.99998
299.99998
299.99998
299.99998
299.99998
299.99998
299.99999
300
300
299.99999
299.99998
299.99999
299.99998
299.99998
299.99999
299.99999
299.99999
299.99999
299.99998
299.99999
299.99999
299.99999
299.99999
300
300
300
300
300
300
300
300
300.00001
300
300.00001
300.00001
300
300
300
300
300
300
300
300
300
300
300
300
300
300
300
300
300
300
300
300
300
300
300
300
300
300
300
300
300
300
300
300
300
300
300
300
299.99999
299.99999
299.99999
299.99999
299.99999
299.99999
299.99998
299.99997
299.99996
299.99996
299.99996
299.99996
299.99998
299.99999
299.99999
299.99999
299.99999
299.99999
299.99999
299.99998
299.99999
299.99998
299.99997
299.99997
299.99996
299.99996
299.99996
299.99996
299.99993
299.99993
299.99993
299.99993
299.99993
299.99993
299.99993
299.99993
299.99993
299.99993
299.99993
299.99993
299.99993
299.99993
299.99993
299.99993
299.99993
299.99992
299.99992
299.99992
299.99993
299.99993
299.99992
299.99993
299.99993
299.99993
299.99993
299.99992
299.99992
299.99988
299.99988
299.99988
299.99988
299.99988
299.99988
299.99988
299.99993
299.99996
299.99996
299.99996
299.99996
299.99996
299.99996
299.99996
299.99996
299.99996
299.99996
299.99996
299.99996
299.99996
299.99993
299.99993
299.99993
299.99993
299.99993
299.99993
299.99993
299.99993
299.99993
299.99993
299.99989
299.99989
299.99989
299.99988
299.99989
299.99989
299.99988
299.99989
299.99989
299.99989
299.99989
299.9999
299.9999
299.99989
299.99989
299.99989
299.99989
299.99988
299.99988
299.99988
299.99988
299.99989
299.99988
299.99988
299.99989
299.99989
299.99989
299.99989
299.99988
299.99982
299.99982
299.99983
299.99982
299.99982
299.99982
299.99982
299.99983
299.99982
299.99982
299.99988
299.99992
299.99993
299.99993
299.99993
299.99993
299.99993
299.99993
299.99993
299.99992
299.99993
299.99988
299.99988
299.99988
299.99989
299.99989
299.99989
299.9999
299.9999
299.9999
299.9999
299.99984
299.99984
299.99984
299.99984
299.99983
299.99983
299.99983
299.99983
299.99984
299.99984
299.99984
299.99984
299.99985
299.99985
299.99984
299.99983
299.99983
299.99983
299.99982
299.99982
299.99982
299.99982
299.99983
299.99983
299.99983
299.99983
299.99983
299.99983
299.99983
299.99975
299.99974
299.99974
299.99975
299.99973
299.99973
299.99973
299.99973
299.99975
299.99974
299.99975
299.99976
299.99983
299.99989
299.99989
299.99989
299.99989
299.99988
299.99988
299.99989
299.99988
299.99982
299.99982
299.99982
299.99983
299.99984
299.99984
299.99984
299.99984
299.99985
299.99985
299.99978
299.99977
299.99976
299.99976
299.99976
299.99975
299.99975
299.99975
299.99975
299.99976
299.99976
299.99976
299.99977
299.99977
299.99977
299.99977
299.99976
299.99975
299.99976
299.99974
299.99974
299.99974
299.99974
299.99975
299.99975
299.99975
299.99976
299.99976
299.99976
299.99966
299.99965
299.99964
299.99963
299.99964
299.99962
299.99962
299.99962
299.99962
299.99964
299.99963
299.99964
299.99965
299.99966
299.99976
299.99984
299.99984
299.99983
299.99983
299.99983
299.99983
299.99975
299.99974
299.99974
299.99974
299.99974
299.99976
299.99976
299.99976
299.99977
299.99978
299.99968
299.99968
299.99967
299.99966
299.99965
299.99966
299.99964
299.99964
299.99964
299.99964
299.99965
299.99965
299.99965
299.99967
299.99967
299.99967
299.99967
299.99965
299.99965
299.99965
299.99963
299.99963
299.99963
299.99962
299.99964
299.99964
299.99964
299.99965
299.99966
299.99952
299.99952
299.99951
299.99949
299.99949
299.99949
299.99947
299.99947
299.99947
299.99947
299.99949
299.99949
299.99949
299.99951
299.99952
299.99952
299.99966
299.99976
299.99976
299.99975
299.99975
299.99964
299.99964
299.99963
299.99963
299.99963
299.99963
299.99965
299.99965
299.99965
299.99967
299.99953
299.99954
299.99954
299.99953
299.99952
299.99951
299.99952
299.99949
299.99949
299.99949
299.99949
299.99951
299.99951
299.99951
299.99953
299.99954
299.99954
299.99953
299.99951
299.9995
299.99951
299.99948
299.99948
299.99948
299.99948
299.9995
299.99949
299.9995
299.99951
299.99934
299.99935
299.99934
299.99933
299.99931
299.99931
299.99931
299.99929
299.99929
299.99929
299.99929
299.99931
299.99931
299.99932
299.99934
299.99935
299.99935
299.99934
299.99952
299.99965
299.99964
299.9995
299.9995
299.9995
299.99948
299.99949
299.99949
299.99949
299.99951
299.99951
299.99951
299.99934
299.99936
299.99937
299.99937
299.99936
299.99934
299.99934
299.99934
299.99932
299.99932
299.99932
299.99932
299.99934
299.99933
299.99934
299.99936
299.99937
299.99937
299.99935
299.99933
299.99933
299.99933
299.99931
299.9993
299.9993
299.9993
299.99932
299.99931
299.99932
299.99912
299.99913
299.99914
299.99914
299.99913
299.99912
299.99911
299.99911
299.9991
299.9991
299.9991
299.9991
299.99911
299.99911
299.99912
299.99913
299.99914
299.99915
299.99914
299.99913
299.99932
299.99932
299.99933
299.99931
299.99931
299.99931
299.99931
299.99934
299.99933
299.99914
299.99915
299.99916
299.99917
299.99917
299.99916
299.99915
299.99914
299.99914
299.99913
299.99913
299.99913
299.99913
299.99914
299.99914
299.99915
299.99916
299.99917
299.99916
299.99915
299.99914
299.99913
299.99913
299.99911
299.99911
299.99911
299.99911
299.99912
299.99912
299.99893
299.99894
299.99894
299.99894
299.99893
299.99893
299.99893
299.99892
299.99892
299.99893
299.99892
299.99892
299.99893
299.99892
299.99893
299.99894
299.99894
299.99894
299.99894
299.99894
299.99895
299.99894
299.99912
299.99913
299.99912
299.99912
299.99912
299.99912
299.99914
299.99895
299.99896
299.99897
299.99897
299.99897
299.99897
299.99897
299.99897
299.99896
299.99896
299.99897
299.99896
299.99896
299.99896
299.99896
299.99896
299.99897
299.99896
299.99896
299.99896
299.99896
299.99896
299.99895
299.99894
299.99895
299.99894
299.99894
299.99894
299.99893
299.99883
299.99883
299.99884
299.99882
299.99881
299.99881
299.99881
299.99883
299.99882
299.99882
299.99884
299.99884
299.99884
299.99884
299.99882
299.99883
299.99883
299.99882
299.99881
299.99881
299.99883
299.99885
299.99884
299.99884
299.99894
299.99895
299.99895
299.99895
299.99896
299.99888
299.99885
299.99886
299.99887
299.99886
299.99885
299.99885
299.99886
299.99888
299.99887
299.99886
299.99889
299.99888
299.99888
299.99888
299.99886
299.99886
299.99887
299.99885
299.99884
299.99883
299.99884
299.99886
299.99885
299.99884
299.99886
299.99885
299.99885
299.99886
299.99893
299.99889
299.9989
299.9989
299.99887
299.99885
299.99885
299.99887
299.9989
299.99889
299.99888
299.99892
299.99891
299.99891
299.99892
299.99888
299.99889
299.9989
299.99887
299.99886
299.99886
299.99888
299.99892
299.99891
299.9989
299.99895
299.99887
299.99887
299.99887
299.99894
299.99895
299.99892
299.99893
299.99894
299.99891
299.9989
299.9989
299.99892
299.99894
299.99894
299.99893
299.99896
299.99895
299.99895
299.99896
299.99892
299.99893
299.99893
299.9989
299.99888
299.99888
299.9989
299.99892
299.99891
299.9989
299.99894
299.99893
299.99892
299.99918
299.99918
299.99914
299.99915
299.99915
299.99912
299.9991
299.9991
299.99912
299.99915
299.99914
299.99913
299.99917
299.99916
299.99916
299.99917
299.99913
299.99914
299.99915
299.99912
299.99911
299.99911
299.99913
299.99917
299.99916
299.99916
299.9992
299.9992
299.99894
299.9988
299.99866
299.99881
299.99869
299.99855
299.99876
299.99866
299.99859
299.9986
299.99866
299.99877
299.99899
299.9992
299.99919
299.99918
299.99922
299.99921
299.99921
299.99921
299.99917
299.99918
299.99919
299.99915
299.99913
299.99913
299.99914
299.99917
299.99916
299.99915
299.99919
299.99918
299.99958
299.99958
299.99958
299.99955
299.99955
299.99955
299.99952
299.9995
299.9995
299.99952
299.99954
299.99954
299.99953
299.99957
299.99957
299.99957
299.99957
299.99954
299.99955
299.99955
299.99952
299.99951
299.99952
299.99954
299.99957
299.99957
299.99956
299.9996
299.9996
299.9996
299.9992
299.99921
299.99917
299.99919
299.99919
299.99917
299.99915
299.99915
299.99917
299.99957
299.99959
299.99959
299.99958
299.99962
299.99961
299.99961
299.99961
299.99958
299.99958
299.99958
299.99955
299.99954
299.99953
299.99954
299.99957
299.99957
299.99955
299.99959
300.00008
300.00008
300.00008
300.00008
300.00005
300.00005
300.00005
300.00002
300.00001
300.00001
300.00002
300.00004
300.00005
300.00004
300.00007
300.00007
300.00007
300.00007
300.00004
300.00005
300.00005
300.00003
300.00001
300.00002
300.00004
300.00007
300.00007
300.00007
300.0001
300.0001
300.0001
300.0001
299.99961
299.99958
299.99959
299.99959
299.99957
299.99955
299.99955
300.00005
300.00006
300.00009
300.00009
300.00008
300.00011
300.00011
300.0001
300.0001
300.00008
300.00008
300.00008
300.00005
300.00003
300.00003
300.00004
300.00006
300.00007
300.00006
300.00063
300.00065
300.00065
300.00065
300.00064
300.00062
300.00063
300.00062
300.0006
300.00059
300.00058
300.0006
300.00062
300.00062
300.00062
300.00064
300.00064
300.00064
300.00064
300.00062
300.00063
300.00062
300.0006
300.00059
300.0006
300.00061
300.00063
300.00064
300.00064
300.00066
300.00066
300.00066
300.00066
300.00064
300.00008
300.00009
300.00009
300.00006
300.00005
300.00062
300.00062
300.00063
300.00064
300.00065
300.00064
300.00066
300.00066
300.00066
300.00066
300.00064
300.00064
300.00064
300.00062
300.0006
300.0006
300.00061
300.00063
300.00063
300.00123
300.00123
300.00124
300.00124
300.00124
300.00124
300.00123
300.00123
300.00122
300.00121
300.00121
300.00121
300.00121
300.00122
300.00123
300.00123
300.00124
300.00125
300.00125
300.00124
300.00123
300.00124
300.00123
300.00122
300.00121
300.00122
300.00122
300.00123
300.00124
300.00124
300.00125
300.00125
300.00125
300.00125
300.00124
300.00124
300.00065
300.00064
300.00063
300.00122
300.00122
300.00122
300.00122
300.00123
300.00124
300.00123
300.00124
300.00124
300.00124
300.00124
300.00123
300.00123
300.00123
300.00122
300.00121
300.00121
300.00122
300.00123
300.0018
300.00181
300.00181
300.00181
300.00182
300.00182
300.00182
300.00182
300.00182
300.00181
300.00181
300.00181
300.00181
300.00181
300.00181
300.00182
300.00182
300.00182
300.00183
300.00183
300.00182
300.00182
300.00182
300.00181
300.00181
300.00181
300.00181
300.00181
300.00181
300.00181
300.00181
300.00181
300.00181
300.00181
300.00181
300.0018
300.0018
300.00179
300.00123
300.00115
300.0011
300.00107
300.00107
300.00109
300.00114
300.00175
300.00179
300.0018
300.0018
300.0018
300.0018
300.0018
300.0018
300.0018
300.0018
300.0018
300.0018
300.0018
300.0018
300.0018
300.00232
300.00232
300.00233
300.00233
300.00233
300.00234
300.00234
300.00233
300.00234
300.00234
300.00233
300.00234
300.00234
300.00234
300.00234
300.00234
300.00235
300.00235
300.00235
300.00235
300.00235
300.00234
300.00235
300.00234
300.00233
300.00233
300.00233
300.00233
300.00232
300.00232
300.00233
300.00232
300.00232
300.00232
300.00232
300.00231
300.00231
300.00231
300.0023
300.0023
300.00179
300.00179
300.00179
300.00179
300.0023
300.00229
300.0023
300.0023
300.0023
300.00231
300.00231
300.0023
300.00231
300.00231
300.0023
300.00231
300.00231
300.00232
300.00277
300.00277
300.00277
300.00278
300.00278
300.00278
300.00279
300.00279
300.00279
300.0028
300.0028
300.00279
300.0028
300.0028
300.0028
300.0028
300.0028
300.00281
300.00281
300.0028
300.00281
300.00281
300.0028
300.0028
300.0028
300.00279
300.00279
300.00279
300.00279
300.00278
300.00277
300.00278
300.00277
300.00277
300.00277
300.00276
300.00276
300.00276
300.00275
300.00275
300.00275
300.00275
300.0023
300.0023
300.00275
300.00274
300.00274
300.00275
300.00275
300.00274
300.00275
300.00275
300.00275
300.00275
300.00276
300.00275
300.00276
300.00277
300.00317
300.00317
300.00317
300.00317
300.00318
300.00319
300.00319
300.0032
300.0032
300.0032
300.0032
300.0032
300.0032
300.00321
300.00321
300.00321
300.00321
300.00321
300.00322
300.00321
300.00321
300.00321
300.00321
300.00321
300.00321
300.00321
300.0032
300.0032
300.0032
300.00319
300.00319
300.00318
300.00318
300.00317
300.00317
300.00317
300.00316
300.00316
300.00316
300.00315
300.00315
300.00315
300.00315
300.00315
300.00314
300.00314
300.00314
300.00314
300.00314
300.00315
300.00315
300.00315
300.00315
300.00316
300.00316
300.00316
300.00352
300.00353
300.00353
300.00353
300.00354
300.00354
300.00355
300.00355
300.00356
300.00356
300.00356
300.00356
300.00357
300.00357
300.00357
300.00358
300.00358
300.00358
300.00357
300.00358
300.00358
300.00358
300.00358
300.00358
300.00357
300.00357
300.00357
300.00356
300.00356
300.00356
300.00356
300.00355
300.00354
300.00354
300.00354
300.00353
300.00353
300.00352
300.00352
300.00352
300.00352
300.00351
300.00351
300.00351
300.00351
300.00351
300.0035
300.00351
300.00351
300.00351
300.00351
300.00351
300.00351
300.00351
300.00352
300.00352
300.00384
300.00384
300.00385
300.00385
300.00386
300.00386
300.00387
300.00387
300.00388
300.00388
300.00389
300.00389
300.00389
300.00389
300.00389
300.0039
300.0039
300.0039
300.0039
300.0039
300.0039
300.0039
300.0039
300.0039
300.0039
300.0039
300.00389
300.00389
300.00389
300.00389
300.00389
300.00388
300.00387
300.00387
300.00387
300.00386
300.00386
300.00385
300.00385
300.00385
300.00385
300.00384
300.00384
300.00384
300.00384
300.00384
300.00383
300.00383
300.00384
300.00384
300.00384
300.00384
300.00384
300.00384
300.00384
300.00384
300.00413
300.00413
300.00413
300.00413
300.00414
300.00414
300.00414
300.00415
300.00416
300.00417
300.00418
300.00418
300.00418
300.00418
300.00419
300.00419
300.00419
300.00419
300.00419
300.00419
300.00419
300.00419
300.00419
300.00419
300.00419
300.00419
300.00419
300.00419
300.00418
300.00418
300.00418
300.00418
300.00417
300.00417
300.00416
300.00416
300.00416
300.00416
300.00416
300.00415
300.00415
300.00415
300.00415
300.00414
300.00414
300.00414
300.00414
300.00414
300.00414
300.00414
300.00414
300.00414
300.00414
300.00414
300.00414
300.00414
300.0044
300.00439
300.00438
300.00438
300.00438
300.00439
300.00439
300.00439
300.00441
300.00442
300.00443
300.00444
300.00444
300.00444
300.00444
300.00444
300.00444
300.00444
300.00444
300.00444
300.00444
300.00444
300.00444
300.00444
300.00445
300.00445
300.00445
300.00444
300.00444
300.00444
300.00443
300.00443
300.00443
300.00442
300.00442
300.00442
300.00442
300.00442
300.00442
300.00442
300.00442
300.00442
300.00442
300.00442
300.00442
300.00441
300.00441
300.00441
300.0044
300.00441
300.00441
300.00441
300.00441
300.00441
300.00441
300.00441
300.00466
300.00463
300.0046
300.00458
300.00458
300.00458
300.00459
300.00459
300.00459
300.00461
300.00464
300.00467
300.00467
300.00468
300.00468
300.00467
300.00468
300.00467
300.00466
300.00465
300.00465
300.00466
300.00467
300.00467
300.00467
300.00468
300.00468
300.00468
300.00468
300.00467
300.00467
300.00466
300.00465
300.00464
300.00464
300.00465
300.00466
300.00467
300.00466
300.00467
300.00467
300.00467
300.00467
300.00466
300.00466
300.00467
300.00467
300.00465
300.00464
300.00465
300.00466
300.00466
300.00466
300.00467
300.00466
300.00466
300.00481
300.0048
300.00479
300.00478
300.00474
300.00474
300.00474
300.00474
300.00474
300.00474
300.00478
300.00479
300.0048
300.00481
300.00481
300.00481
300.00481
300.00481
300.0048
300.0048
300.0048
300.0048
300.0048
300.0048
300.00481
300.0048
300.0048
300.00481
300.00481
300.0048
300.0048
300.0048
300.0048
300.00479
300.00479
300.00479
300.00479
300.0048
300.00481
300.0048
300.0048
300.00481
300.00481
300.00481
300.00481
300.00482
300.00482
300.00481
300.00481
300.00481
300.00481
300.00481
300.00481
300.00481
300.00481
300.00481
300.00495
300.00494
300.00493
300.00494
300.00496
300.00498
300.00499
300.00498
300.00497
300.00495
300.00492
300.0049
300.00491
300.00491
300.0049
300.00492
300.00492
300.00491
300.00492
300.00493
300.00493
300.00492
300.0049
300.00491
300.00491
300.00488
300.00489
300.00489
300.00488
300.00491
300.00491
300.0049
300.00492
300.00493
300.00493
300.00493
300.00492
300.00493
300.00493
300.00492
300.00493
300.00493
300.00492
300.00494
300.00497
300.00498
300.00496
300.00496
300.00497
300.00496
300.00495
300.00496
300.00495
300.00493
300.005
300.00501
300.0051
300.00531
300.0057
300.00618
300.00656
300.0065
300.00609
300.00565
300.00529
300.00509
300.00499
300.00498
300.00506
300.0053
300.00584
300.00683
300.0082
300.00935
300.00942
300.00831
300.00688
300.00585
300.0053
300.00506
300.00499
300.005
300.00491
300.0049
300.00484
300.00486
300.0048
300.00487
300.00485
300.00492
300.00488
300.00481
300.00488
300.00491
300.00492
300.00485
300.00485
300.00489
300.00508
300.00519
300.00536
300.00549
300.00545
300.00529
300.00516
300.00506
300.00499
300.005
300.00491
300.00491
300.00485
300.00481
300.00485
300.00487
300.00487
300.00489
300.00498
300.0049
300.00482
300.00487
300.00487
300.00491
300.00494
300.00491
300.00491
300.00494
300.00491
300.00495
300.00485
300.00488
300.00492
300.00496
300.00506
300.00511
300.00514
300.00509
300.00503
300.00505
300.00495
300.00487
300.0049
300.00482
300.00489
300.00493
300.00486
300.0049
300.00472
300.00469
300.00478
300.00471
300.00469
300.00473
300.00468
300.00442
300.00414
300.00416
300.00414
300.00442
300.00445
300.00457
300.00444
300.00415
300.00419
300.00415
300.00443
300.00445
300.00417
300.00419
300.00447
300.00474
300.00493
300.00529
300.00515
300.00498
300.00548
300.00509
300.00487
300.00521
300.00577
300.00493
300.00507
300.00629
300.00655
300.00606
300.00905
300.007
300.00566
300.00508
300.00487
300.00469
300.00487
300.00519
300.00475
300.00462
300.00482
300.00488
300.00489
300.0049
300.0049
300.00489
300.00488
300.00483
300.00484
300.00486
300.00485
300.00484
300.00465
300.00468
300.00503
300.0049
300.00508
300.00523
300.00599
300.00806
300.01261
300.01405
300.0148
300.01482
300.01411
300.01269
300.01113
300.00968
300.00844
300.00845
300.00974
300.01127
300.0129
300.01436
300.0151
300.01509
300.01435
300.0129
300.01128
300.00976
300.00847
300.00846
300.00691
300.00569
300.00516
300.00501
300.00499
300.00506
300.00511
300.00511
300.00507
300.005
300.00502
300.00517
300.00568
300.00685
300.00837
300.00839
300.00964
300.01114
300.01278
300.01429
300.01508
300.01511
300.01437
300.01289
300.01124
300.0097
300.00841
300.00839
300.00962
300.01105
300.0143
300.01902
300.02369
300.02745
300.02866
300.02837
300.02841
300.02872
300.02746
300.02362
300.01895
300.01429
300.0111
300.00825
300.00616
300.00534
300.00549
300.00657
300.00938
300.01414
300.01269
300.01685
300.02248
300.02755
300.029
300.02908
300.02826
300.02656
300.02516
300.02407
300.02404
300.02505
300.02641
300.02808
300.02892
300.02891
300.02753
300.02899
300.02781
300.02506
300.02178
300.01864
300.01686
300.01692
300.01881
300.02202
300.02534
300.02807
300.02918
300.02852
300.02905
300.02484
300.01889
300.02
300.0149
300.01493
300.00941
300.00657
300.00549
300.00534
300.00618
300.00831
300.0128
300.01421
300.01899
300.02004
300.02624
300.02617
300.02903
300.02586
300.02706
300.02247
300.02554
300.02072
300.01502
300.00981
300.00667
300.00659
300.00958
300.01467
300.02032
300.02515
300.02823
300.02889
300.02665
300.02194
300.01473
300.0064
299.99899
299.99458
299.99468
299.9993
300.00686
300.01527
300.0103
300.01948
300.01777
300.02494
300.02499
300.02913
300.02602
300.01963
300.01781
300.00739
300.00736
299.99513
299.99954
299.98971
299.98365
299.98352
299.98933
299.99898
300.00963
300.01881
300.02534
300.02874
300.02435
300.01702
300.0066
299.99449
299.98342
299.97662
299.97677
299.98385
299.98385
299.99514
299.99962
300.01042
300.01551
300.02273
300.02734
300.02934
300.02503
300.02273
300.017
300.01446
300.01122
300.00973
300.01212
300.01542
300.0192
300.02398
300.02794
300.02966
300.02891
300.02594
300.02113
300.01541
300.00707
299.99947
299.98975
299.98366
299.97676
299.97661
299.98341
299.99449
300.00662
300.01705
300.02439
300.02883
300.02548
300.01892
300.00971
299.99902
299.98935
299.98352
299.99471
299.99483
300.00704
300.01019
300.0194
300.02261
300.02589
300.02859
300.02965
300.0295
300.02797
300.02935
300.02888
300.02725
300.02589
300.02482
300.01751
300.01744
300.00695
300.00993
299.99913
300.00656
300.01492
300.02214
300.02688
300.02914
300.02858
300.02549
300.02067
300.01502
300.02232
300.01921
300.02576
300.02478
300.02909
300.02913
300.02639
300.02513
300.02281
300.01924
300.01452
300.01215
300.01002
300.00952
300.01181
300.01426
300.01698
300.01907
300.02017
300.02013
300.01895
300.01681
300.01405
300.01163
300.00963
300.01198
300.00991
300.01198
300.01433
300.01693
300.01899
300.02011
300.02014
300.01907
300.01704
300.01444
300.01205
300.00995
300.01201
300.01529
300.01908
300.0226
300.02483
300.02605
300.02605
300.0248
300.02252
300.01898
300.01522
300.0145
300.01161
300.01404
300.01678
300.01891
300.02007
300.02011
300.01899
300.01689
300.01414
300.01166
300.00936
300.01012
300.01161
300.01452
300.01863
300.01644
300.02207
300.02457
300.02095
300.02581
300.0293
300.02927
300.02787
300.02353
300.01857
300.01399
300.01632
300.01671
300.01685
300.02255
300.02488
300.01888
300.02
300.02619
300.02625
300.02003
300.01897
300.02504
300.02276
300.02787
300.02936
300.02944
300.02867
300.02706
300.02925
300.0279
300.02398
300.01921
300.01442
300.01697
300.01686
300.01892
300.02002
300.01998
300.01882
300.02091
300.02461
300.02202
300.02795
300.02986
300.03052
300.03064
300.03031
300.02969
300.02841
300.02976
300.03039
300.02921
300.0263
300.02964
300.02895
300.02735
300.02797
300.02807
300.02363
300.02248
300.02564
300.02105
300.02574
300.02909
300.0295
300.02978
300.02822
300.02642
300.02383
300.0282
300.0276
300.02266
300.01933
300.02637
300.02971
300.02593
300.02601
300.02103
300.02479
300.02228
300.01656
300.01415
300.01882
300.02389
300.02833
300.02977
300.02979
300.02546
300.02541
300.02595
300.02694
300.02432
300.0201
300.01859
300.01757
300.00701
300.01015
300.01531
300.01601
300.02199
300.01594
300.01524
300.00671
300.00714
299.99923
300.01087
300.01992
300.02661
300.02605
300.02507
300.0256
300.02401
300.0184
300.0174
300.01915
300.01009
300.007
300.00763
299.99443
299.99445
299.99906
299.98894
299.99904
299.99921
300.01093
300.00764
299.99433
299.99436
299.98271
299.98209
299.98863
299.9822
299.98282
299.97559
299.97458
299.97372
299.9818
299.99467
300.00815
300.01147
300.01665
300.02264
300.02379
300.01759
300.00867
300.01766
300.01673
300.00785
299.99965
300.00015
300.01255
300.00899
299.99493
299.9953
300.01047
300.02651
300.03174
300.03105
300.02905
300.0238
300.02359
300.02821
300.03004
300.03031
300.03035
300.02091
300.0258
300.02454
300.022
300.01635
300.01856
300.0235
300.02789
300.02932
300.02933
300.02511
300.02564
300.02412
300.02673
300.02617
300.01933
300.01747
300.01848
300.02009
300.02387
300.02814
300.0275
300.02911
300.02982
300.02828
300.02656
300.02591
300.02272
300.01558
300.01033
300.00709
300.00771
300.01112
299.99956
299.99455
299.99457
299.99938
300.00716
300.0076
300.01628
300.02236
300.02144
300.01582
300.01651
300.01157
299.99979
299.98904
299.98235
299.98296
299.98934
299.98316
299.97575
299.97475
299.98256
299.99499
299.995
299.99961
300.0108
300.00774
300.00837
300.01928
300.02071
300.02428
300.02676
300.02945
300.03047
300.02984
300.02996
300.02801
300.03064
300.0308
300.03058
300.02996
300.02867
300.02611
300.02937
300.02965
300.03008
300.02858
300.02859
300.02798
300.02315
300.01996
300.02684
300.02996
300.02739
300.02486
300.02647
300.02596
300.01829
300.01834
300.00778
299.99502
299.98316
299.97573
299.97557
299.9827
299.99436
300.00703
300.0176
300.01862
300.02599
300.0244
300.02707
300.0265
300.01944
300.02021
300.02401
300.02846
300.02784
300.02285
300.02607
300.02945
300.03016
300.02855
300.02673
300.02231
300.01618
300.01102
300.00767
299.99434
299.99926
299.99909
300.01023
300.01548
300.00685
300.00728
300.01625
300.01556
300.02138
300.02613
300.02556
300.02827
300.02942
300.03021
300.03085
300.03115
300.02969
300.02888
300.03023
300.02839
300.03035
300.03105
300.03087
300.03021
300.02678
300.02862
300.02414
300.023
300.028
300.0299
300.02952
300.02859
300.02728
300.02041
300.01116
299.99933
299.98864
299.98208
299.97456
299.98218
299.98281
299.98895
299.99918
299.99456
299.99452
300.00792
300.00731
300.0104
300.01967
300.01794
300.01891
300.02463
300.02629
300.03004
300.02674
300.02579
300.02584
300.01802
300.00741
299.99468
299.98296
299.98234
299.97473
299.98256
299.98907
299.98937
299.99969
299.99986
299.99501
300.0084
300.01169
300.01092
300.01606
300.00735
299.99953
299.99969
299.99465
300.00802
300.01144
300.01068
300.01595
300.01663
300.00779
300.01674
300.02274
300.02183
300.0265
300.02341
300.02012
300.02087
300.01933
300.02497
300.02652
300.03007
300.02601
300.02701
300.02756
300.02889
300.02455
300.02895
300.02715
300.03049
300.02997
300.02827
300.02977
300.03046
300.02919
300.02645
300.02328
300.01987
300.02061
300.019
300.02475
300.02634
300.03008
300.02688
300.02742
300.02879
300.02442
300.02889
300.0271
300.03045
300.02999
300.02818
300.02974
300.03045
300.02847
300.03109
300.02999
300.03137
300.0311
300.02845
300.0305
300.03122
300.02394
300.02405
300.0288
300.03077
300.03108
300.03098
300.03043
300.02834
300.02358
300.02822
300.03009
300.03109
300.03177
300.02662
300.03066
300.03297
300.03162
300.02186
300.01032
300.00627
300.00506
300.00474
300.00492
300.00526
300.00514
300.00493
300.00472
300.00469
300.00479
300.00472
300.00488
300.00521
300.00575
300.006
300.00651
300.01071
300.01076
300.01036
300.00855
300.00656
300.00535
300.00654
300.00694
300.0068
300.00562
300.00514
300.00494
300.00543
300.00594
300.00572
300.00623
300.00636
300.00628
300.00903
300.00905
300.00629
300.00529
300.00529
300.00517
300.00517
300.00503
300.00468
300.00466
300.00492
300.00509
300.00523
300.00601
300.00811
300.00684
300.00563
300.00513
300.00505
300.00529
300.00586
300.00692
300.00836
300.0095
300.00951
300.00836
300.00692
300.00587
300.0053
300.00504
300.00496
300.00497
300.00507
300.0053
300.0057
300.0062
300.00662
300.00662
300.00621
300.0057
300.00531
300.00508
300.00498
300.00497
300.0049
300.0049
300.00485
300.00487
300.00486
300.00481
300.00484
300.0047
300.00471
300.00477
300.00464
300.00443
300.00445
300.00447
300.00446
300.00444
300.00441
300.00414
300.00384
300.00352
300.00352
300.00351
300.00351
300.00384
300.00384
300.00383
300.0035
300.0035
300.00351
300.0035
300.00384
300.00386
300.00384
300.0035
300.00352
300.00385
300.00387
300.00353
300.00361
300.00356
300.00351
300.00362
300.00405
300.00388
300.00424
300.00447
300.00486
300.0045
300.00463
300.0043
300.00439
300.00474
300.00588
300.00537
300.00491
300.00535
300.00478
300.00401
300.00394
300.00441
300.00389
300.00421
300.00668
300.00541
300.00424
300.00367
300.00351
300.00389
300.00384
300.00415
300.00443
300.00457
300.00424
300.00447
300.00419
300.00449
300.00485
300.00537
300.00462
300.0043
300.00417
300.00419
300.00389
300.00387
300.00353
300.00355
300.00363
300.00357
300.00395
300.00387
300.00405
300.00362
300.00389
300.00441
300.00492
300.00538
300.0044
300.00475
300.00589
300.00985
300.00797
300.00605
300.00498
300.00456
300.00548
300.00606
300.00925
300.01006
300.01648
300.02189
300.03159
300.0289
300.02335
300.01646
300.00848
300.00887
300.0105
300.01027
300.02203
300.03187
300.029
300.02914
300.02828
300.03029
300.03135
300.03064
300.0323
300.03355
300.03499
300.02998
300.02379
300.03011
300.03346
300.03549
300.03299
300.02928
300.03293
300.03221
300.03075
300.03083
300.0323
300.02696
300.02686
300.01403
300.01923
300.02525
300.03044
300.03277
300.03524
300.03313
300.03419
300.03244
300.02891
300.03176
300.01919
300.02475
300.03081
300.02927
300.02782
300.02642
300.02013
300.01914
300.0096
300.01078
300.02021
300.01504
300.00157
300.00075
300.00014
300.01264
300.01155
299.99964
299.99457
300.00818
300.00904
299.99484
299.99521
300.01056
300.01125
299.99575
299.98033
299.9886
300.00157
300.01492
300.01392
300.00075
299.98847
299.9885
299.98858
299.98169
299.9812
299.9727
299.98132