/*--------------------------------*- C++ -*----------------------------------*\
  =========                 |
  \\      /  F ield         | OpenFOAM: The Open Source CFD Toolbox
   \\    /   O peration     | Website:  https://openfoam.org
    \\  /    A nd           | Version:  7
     \\/     M anipulation  |
\*---------------------------------------------------------------------------*/
FoamFile
{
    version     2.0;
    format      ascii;
    class       volScalarField;
    location    "290";
    object      alphat;
}
// * * * * * * * * * * * * * * * * * * * * * * * * * * * * * * * * * * * * * //

dimensions      [1 -1 -1 0 0 0 0];

internalField   nonuniform List<scalar> 
25201
(
7.9993879
7.9867793
7.9994108
7.9868291
7.8590368
7.9528799
7.9735565
8.0169514
8.0009963
7.9262375
8.0009727
7.9528508
7.9085001
7.2931805
7.1716547
7.7691188
7.6700838
7.5782815
7.5359028
7.2737123
7.4600799
7.4619734
7.5407088
7.4065562
7.3958508
7.222756
7.3370835
7.5797028
7.5126547
7.2611077
7.3139066
7.3845271
6.968261
7.0498363
7.1537298
7.1716816
7.3821369
7.3092496
7.069715
6.9865717
7.2537525
7.2228433
7.2303041
6.9244384
6.9438742
6.985863
7.2404454
7.5716363
7.8485916
7.9085412
7.9646991
7.9121371
7.7318742
7.8045204
7.8784152
7.8397991
7.8087947
7.718411
7.7577797
7.4958842
7.5334923
7.6325522
7.6679252
7.7274056
7.7618783
7.9104039
7.8379093
7.6000132
7.5464625
7.3501108
7.297455
7.3616877
7.6334141
7.6809475
7.6216838
7.1637168
7.226973
7.3044107
7.3293461
7.3958686
7.4831614
7.5573161
7.4361976
7.4469867
7.3641529
7.4738792
7.3281825
7.2928752
7.1677571
7.2378664
7.1480968
7.0951084
7.0865918
7.09565
7.0853645
7.1600174
7.1593198
7.0856602
6.9493
7.0420167
7.0447077
6.9575204
6.970087
7.0576568
7.060196
6.9879081
6.8260147
6.9298352
6.9933589
6.9847593
6.9099178
6.91609
6.8055765
6.7956228
6.6253776
6.7564976
6.7605322
6.6360467
6.6480951
6.8153255
6.9257535
6.7761746
6.7801914
6.658836
6.4719731
6.6281854
6.7440194
6.9930867
7.2378312
7.0697134
6.9866147
6.9438368
6.9860681
7.0252485
7.1104113
7.2040041
7.3283871
7.436336
7.6325838
7.8088217
7.839821
7.6679019
7.4958722
7.5334668
7.7184453
7.7577846
7.8044766
7.8783885
7.964654
7.910392
7.7618555
7.7272774
7.546515
7.599852
7.8378102
7.7685815
7.9120675
7.8484908
7.6334806
7.680991
7.2975145
7.3616106
7.4739239
7.4831856
7.5573605
7.3958673
7.3293464
7.3043674
7.1500205
7.2290753
7.3641429
7.4470248
7.294404
7.3952832
7.4498666
7.3226364
7.2941563
7.2734569
7.0348145
7.0548076
6.8315783
6.9055864
6.9329905
6.8266981
6.8174566
6.6969254
6.7994864
6.7983747
6.6738469
6.4870535
6.646391
6.7777441
7.0345556
7.2735197
7.0952178
7.1478957
7.1672
6.6478105
6.7759546
6.9257076
7.0574205
7.0603386
6.9880929
7.0866095
7.0952809
6.9694813
6.8153541
6.8260275
6.9298019
6.7802782
6.6589288
6.4720414
6.6280709
6.6203467
6.6043094
6.7251935
7.9867124
7.9992087
7.8488384
7.579764
7.5126135
7.2304804
7.0499839
7.3138115
7.261086
7.2539602
7.2227225
6.9438348
6.9240734
6.9680219
6.9865643
7.0697405
7.3091597
7.3822274
7.3843839
7.153692
7.1715809
7.2929686
7.4618681
7.6700139
0.0013141151
0.0061805219
0.014917322
0.025743047
0.34378854
0.35069422
0.026677431
0.015433092
0.0063875584
0.0013505463
0.0013677989
0.0065606905
0.015867978
0.027402088
0.35831147
0.36267082
0.027658222
0.016028014
0.0066291609
0.001376317
0.0013791667
0.006653513
0.016081855
0.027730239
0.36528533
0.36689939
0.027750269
0.016101522
0.0066635099
0.0013805402
0.0013815678
0.0066740157
0.016125214
0.027780405
0.36803573
0.36896282
0.027826567
0.016154798
0.0066859892
0.001382589
0.0013836908
0.0067007739
0.016192146
0.027886347
0.36978461
0.37058903
0.027952499
0.016231387
0.0067159178
0.0013847802
0.00138594
0.0067327872
0.016274723
0.028024133
0.37137489
0.37218529
0.028097595
0.016318052
0.0067494747
0.0013870764
0.0013882889
0.006767725
0.016364952
0.028175409
0.37301033
0.37387185
0.028254686
0.01641182
0.0067858252
0.0013894883
0.0013907725
0.0068055076
0.016462276
0.028338356
0.3747553
0.37568261
0.028424137
0.016513148
0.0068252161
0.001392057
0.0013934325
0.0068465334
0.016567704
0.028514583
0.37664163
0.37765223
0.028607793
0.016623081
0.006868029
0.0013948209
0.0013963037
0.0068911153
0.016682062
0.028705587
0.37869876
0.37979873
0.028806807
0.016742296
0.0069145432
0.001397812
0.0013994168
0.0069395439
0.016806028
0.02891242
0.38094023
0.3821401
0.029022009
0.016871396
0.0069650371
0.0014010537
0.0014027854
0.0069921047
0.01694031
0.029136249
0.38338775
0.38469573
0.029254515
0.017010938
0.0070197014
0.0014045524
0.0014064165
0.0070488778
0.017085153
0.029377617
0.38605241
0.38746723
0.029504884
0.017161259
0.0070786746
0.0014083232
0.0014103325
0.0071100435
0.017240943
0.029637086
0.38893114
0.39045581
0.029774025
0.017322904
0.007142191
0.0014124023
0.0014145862
0.007175947
0.017408545
0.029916119
0.39203789
0.39369073
0.030064156
0.017497201
0.0072107435
0.0014168401
0.0014191869
0.0072470794
0.017588907
0.030215917
0.39540628
0.39717515
0.030372082
0.017682661
0.0072840791
0.0014215983
0.44537389
0.027400638
0.016103643
0.0067090105
0.0013630799
0.0013609207
0.0066755759
0.016018963
0.027260679
0.44341182
0.44149025
0.027123006
0.015935017
0.0066422382
0.0013588079
0.0013567516
0.0066098049
0.01585244
0.02698652
0.43962075
0.43783049
0.026856016
0.015773135
0.0065785703
0.0013547536
0.0013528507
0.0065487115
0.015696783
0.026729375
0.4361136
0.43447331
0.026608588
0.015623313
0.0065197595
0.0013510096
0.0013492531
0.0064921407
0.015552565
0.02649119
0.43289742
0.43139489
0.026379617
0.015484655
0.0064654094
0.0013475489
0.0013459312
0.0064401044
0.015419667
0.026271587
0.42995589
0.42858322
0.026169446
0.015357479
0.0064156368
0.0013443638
0.0013428754
0.0063923508
0.015297534
0.026069604
0.42725794
0.42599027
0.0259748
0.015239784
0.0063696505
0.0013414246
0.0013400491
0.0063481386
0.015184219
0.025882043
0.42477043
0.42360543
0.025794468
0.015130858
0.0063271869
0.0013387056
0.001337435
0.006307388
0.015079502
0.025708408
0.42247668
0.42142143
0.025628602
0.015030734
0.0062882144
0.0013361952
0.001335021
0.0062700884
0.014983533
0.025549209
0.42039226
0.41941333
0.025475086
0.014938294
0.0062523387
0.0013338611
0.0013327589
0.0062355957
0.014894504
0.02540117
0.4184516
0.41752879
0.025331851
0.014852223
0.0062190386
0.0013316567
0.0013306043
0.0062035216
0.014811541
0.025263083
0.41662592
0.41574817
0.025199283
0.014772461
0.0061881966
0.0013295445
0.0013285305
0.0061740963
0.01473558
0.025137349
0.41486626
0.41396349
0.025084178
0.014701904
0.0061606371
0.0013275155
0.0013265462
0.0061493258
0.014673489
0.025039577
0.41295342
0.41177522
0.025013364
0.014652131
0.0061395904
0.0013255568
0.0013241915
0.0061299073
0.014632121
0.024991299
0.410126
0.40752013
0.02492855
0.014583568
0.0061070881
0.0013212648
0.0013135593
0.0060467983
0.014440583
0.024702427
0.40313854
0.39647734
0.024176887
0.014126517
0.0059176114
0.001297256
0.0012733974
0.0057114511
0.013635577
0.023344861
0.38834498
0.36412629
0.02089656
0.012066858
0.0050670118
0.001225866
0.0012715911
0.0057220122
0.013662252
0.023383874
0.38908204
0.39724353
0.024209458
0.01414722
0.0059258401
0.0012962844
0.0013131647
0.0060552946
0.01446144
0.024735509
0.40377183
0.40800437
0.024952147
0.014598546
0.0061133954
0.0013210331
0.0013240861
0.0061351295
0.014645058
0.025012378
0.41055152
0.41213638
0.02502817
0.014661351
0.0061434787
0.0013254922
0.0013265232
0.0061527294
0.014682142
0.025054161
0.41328055
0.41423269
0.025094427
0.014708042
0.006163184
0.0013274982
0.0013285297
0.0061763305
0.014741355
0.025147352
0.41510448
0.41596332
0.025206042
0.014776399
0.0061898499
0.0013295403
0.001330611
0.0062050474
0.014815567
0.025270306
0.41681266
0.4176914
0.025336223
0.014854714
0.006220118
0.0013316579
0.0013327715
0.0062366681
0.014897347
0.025406383
0.41859289
0.41953674
0.025477988
0.014939984
0.0062531267
0.0013338728
0.001335049
0.0062710677
0.014986105
0.025553889
0.42051124
0.42153382
0.025631573
0.015032503
0.0062890263
0.0013362242
0.0013374795
0.0063084807
0.01508241
0.02571369
0.42259461
0.42370836
0.025798015
0.015132908
0.0063280756
0.0013387441
0.0013400936
0.0063491793
0.015186954
0.025886932
0.42486595
0.42608033
0.025978456
0.015241886
0.0063705431
0.0013414604
0.0013429132
0.0063933932
0.015300295
0.026074519
0.42734224
0.42866517
0.026173663
0.015359886
0.0064166193
0.0013443909
0.0013459554
0.0064412516
0.015422714
0.026276975
0.43004503
0.43148628
0.026383872
0.015487092
0.0064663963
0.0013475585
0.001349259
0.0064931273
0.015555234
0.026496
0.43299193
0.43457117
0.026612149
0.015625296
0.0065205471
0.0013510058
0.0013528507
0.0065495092
0.015698972
0.02673339
0.43621724
0.43793946
0.026859125
0.01577485
0.0065792501
0.0013547556
0.0013567684
0.0066105797
0.015854494
0.026990189
0.43973251
0.44160443
0.027126579
0.015937174
0.0066431362
0.0013588443
0.0013609934
0.0066769902
0.016022435
0.027266188
0.44353124
0.44551581
0.027409265
0.016108947
0.0067110727
0.0013631932
0.001365482
0.0067460176
0.016197349
0.027555041
0.44758686
0.0014135104
0.0072069515
0.017454741
0.029921597
0.39857988
0.39673221
0.029763314
0.017359503
0.0071692775
0.0014110435
0.0014086476
0.0071321538
0.017265418
0.029606841
0.39493653
0.39320817
0.029456484
0.017174536
0.0070961631
0.0014063307
0.0014040901
0.0070613326
0.01708592
0.029308959
0.39153361
0.38993278
0.029167873
0.017000711
0.0070277025
0.0014019131
0.0013998359
0.0069955593
0.016918651
0.029030927
0.38839272
0.38692045
0.028900431
0.016839791
0.0069644358
0.0013978272
0.0013959151
0.0069347517
0.016763803
0.02877341
0.38549917
0.38415626
0.028653491
0.016691258
0.0069061368
0.00139407
0.0013923204
0.0068788676
0.016621241
0.0285362
0.38285639
0.3816179
0.028425091
0.016554056
0.0068524086
0.0013906246
0.0013890168
0.0068272625
0.016489333
0.028316515
0.3804227
0.37928284
0.028213663
0.016427123
0.0068027888
0.0013874503
0.001385966
0.0067796087
0.016367269
0.028113031
0.37818508
0.37714385
0.028018369
0.016309955
0.0067570649
0.0013845164
0.0013831447
0.0067357701
0.016254784
0.027925353
0.37613715
0.37518026
0.027838025
0.0162019
0.0067149868
0.0013817974
0.0013805229
0.0066954309
0.016151061
0.02775207
0.37425569
0.3733758
0.027671633
0.016102324
0.0066762897
0.0013792641
0.0013780714
0.0066583448
0.016055483
0.027592162
0.37252303
0.37170787
0.027518018
0.016010542
0.0066407123
0.0013768837
0.0013757534
0.0066242586
0.015967419
0.02744463
0.37091276
0.37014739
0.027377302
0.015926422
0.006608149
0.001374619
0.0013735384
0.0065934403
0.015887898
0.027312102
0.36937471
0.36858979
0.027257611
0.015853481
0.006579644
0.0013724623
0.00137145
0.0065684734
0.015825493
0.027213801
0.36770072
0.36665293
0.027192462
0.015806513
0.0065595345
0.0013704331
0.0013690109
0.0065509794
0.015789813
0.027177233
0.3651543
0.36271362
0.027112048
0.01573939
0.0065275316
0.0013657352
0.0013567615
0.0064639239
0.015585619
0.026862984
0.35868514
0.35278671
0.026274894
0.01524331
0.0063270682
0.0013374883
0.0013063431
0.0061321613
0.014754558
0.025400621
0.34605716
0.3450182
0.025805207
0.014977227
0.0062167638
0.0013093452
0.0013508101
0.0063785248
0.01540412
0.026635053
0.35044724
0.35846031
0.027419021
0.015878398
0.00656467
0.0013677201
0.0013764438
0.0066319481
0.016033961
0.027666606
0.36270515
0.36534474
0.027737409
0.016085926
0.0066551433
0.0013791589
0.0013805684
0.0066654802
0.016106016
0.02775626
0.36694107
0.36808704
0.027784496
0.016127265
0.0066747724
0.001381532
0.0013826055
0.0066874473
0.016158126
0.027830811
0.36900533
0.36982557
0.02788916
0.016193432
0.0067012175
0.001383661
0.0013848025
0.0067171353
0.016234147
0.027955861
0.3706083
0.37139683
0.028026306
0.016275624
0.0067330703
0.0013859175
0.0013871035
0.0067505163
0.016320401
0.028100385
0.37219569
0.37302623
0.0281771
0.016365584
0.0067679098
0.0013882735
0.0013895205
0.0067867859
0.016413991
0.028257311
0.37388425
0.37477387
0.028339879
0.016462842
0.0068056701
0.0013907645
0.0013920952
0.0068261395
0.01651524
0.028426708
0.37569536
0.37666
0.028516356
0.016568434
0.0068467607
0.0013934343
0.0013948647
0.0068689826
0.016625228
0.028610469
0.37766396
0.3787176
0.028708029
0.016683197
0.0068914934
0.0013963134
0.0013978566
0.0069155695
0.01674464
0.02880987
0.37981612
0.38096351
0.028915486
0.016807547
0.0069400618
0.0013994282
0.0014011003
0.0069661588
0.016874086
0.029025863
0.3821567
0.38340455
0.029140322
0.016942343
0.0069927905
0.0014028117
0.0014046263
0.0070209984
0.017014122
0.029259362
0.38470149
0.38605562
0.029382907
0.017087928
0.0070498689
0.0014064901
0.0014084599
0.0070803444
0.017165366
0.029511371
0.38746585
0.38894028
0.029644497
0.017245053
0.0071116003
0.0014104845
0.001412612
0.0071444862
0.017328511
0.029782986
0.39047805
0.39208918
0.029926069
0.017414199
0.0071781402
0.0014147916
0.0014170696
0.0072133684
0.017503494
0.030074269
0.39376659
0.39551049
0.030227854
0.017595526
0.0072495515
0.0014194075
0.0014218433
0.0072871899
0.017690531
0.030385204
0.39731426
0.39917457
0.030547572
0.017788108
0.0073257475
0.0014243524
0.0014134735
0.0072065421
0.017453692
0.029919803
0.39856241
0.39672514
0.029761893
0.017358625
0.0071689162
0.0014110035
0.0014086052
0.0071318102
0.017264598
0.029605516
0.39493519
0.3932111
0.029455195
0.017173731
0.0070958185
0.0014062878
0.0014040484
0.0070609922
0.017085113
0.029307649
0.39153725
0.38993588
0.02916641
0.016999819
0.0070273362
0.0014018742
0.001399802
0.0069951952
0.016917768
0.029029481
0.38839287
0.38691999
0.02889891
0.016838874
0.0069640684
0.0013977987
0.0013958942
0.0069344357
0.016763045
0.028772224
0.38550173
0.3841509
0.028651726
0.016690224
0.006905742
0.00139405
0.0013923035
0.0068785144
0.016620347
0.028534753
0.3828493
0.38161138
0.028423682
0.016553192
0.0068520699
0.0013906098
0.0013890045
0.0068269737
0.016488622
0.028315399
0.38041663
0.37927959
0.028212764
0.016426526
0.0068025393
0.0013874397
0.0013859575
0.0067794134
0.016366818
0.02811236
0.37818108
0.37714728
0.028018097
0.016309701
0.0067569374
0.0013845113
0.0013831439
0.0067357159
0.01625472
0.027925375
0.3761428
0.37518906
0.027838212
0.016201916
0.006714962
0.0013817994
0.0013805286
0.0066954661
0.016151208
0.02775242
0.37426184
0.37338921
0.027672488
0.016102715
0.0066764045
0.0013792751
0.0013780866
0.0066585008
0.016055944
0.027593034
0.37253513
0.37171666
0.027519093
0.016011082
0.0066408907
0.0013769016
0.001375774
0.0066244534
0.015967978
0.027445651
0.37092384
0.37015553
0.027378052
0.01592681
0.0066082872
0.0013746392
0.0013735585
0.0065935518
0.015888218
0.027312702
0.36938013
0.36859074
0.027257728
0.015853525
0.0065796618
0.0013724789
0.0013714663
0.0065685321
0.015825674
0.02721421
0.36771008
0.3666613
0.027192338
0.015806418
0.0065595014
0.0013704422
0.0013690102
0.006551074
0.015790003
0.027177485
0.36516724
0.36274386
0.027112403
0.015739648
0.0065276335
0.0013657215
0.0013566493
0.0064634079
0.015584553
0.026861123
0.35871951
0.35285713
0.026271526
0.015241696
0.0063264542
0.0013373613
0.001305451
0.0061289497
0.014748715
0.025390136
0.34626115
0.39009996
0.023440378
0.013719711
0.0057536207
0.0012670023
0.0012962538
0.0059212145
0.014128794
0.024179253
0.39696935
0.40382396
0.024740528
0.014464019
0.0060560654
0.0013131517
0.0013212718
0.0061148422
0.014601347
0.024955735
0.4080341
0.41054887
0.02501287
0.014644657
0.0061348923
0.001324161
0.0013255788
0.0061438147
0.014662013
0.025028414
0.41210519
0.41324533
0.025052788
0.014680653
0.006152046
0.0013265361
0.0013275477
0.006163339
0.014708259
0.02509389
0.41419854
0.41507266
0.025145891
0.014739961
0.0061757174
0.0013285307
0.0013295854
0.006190165
0.014777025
0.025206156
0.41591961
0.41678186
0.025269709
0.014814691
0.0062046233
0.0013306104
0.0013316961
0.0062204798
0.014855491
0.025336692
0.41766226
0.41857334
0.025405958
0.014896577
0.0062362836
0.0013327648
0.0013339005
0.0062534336
0.014940627
0.0254783
0.41951224
0.420493
0.025553271
0.014985231
0.0062706401
0.0013350324
0.0013362377
0.0062891987
0.015032807
0.025631402
0.42151189
0.42257767
0.025712541
0.015081247
0.0063079442
0.001337451
0.001338742
0.0063280787
0.01513278
0.025797194
0.42368582
0.42484733
0.025885087
0.015185398
0.0063484916
0.0013400497
0.0013414409
0.0063703289
0.015241222
0.025976863
0.42606109
0.42732674
0.026071711
0.015298215
0.0063925184
0.0013428572
0.0013443648
0.0064162292
0.015358744
0.026171267
0.42864401
0.43002417
0.026273975
0.015420565
0.0064403603
0.0013459066
0.0013475498
0.0064660324
0.015486056
0.026381775
0.4314631
0.43297375
0.026493584
0.015553448
0.0064923818
0.0013492431
0.0013510364
0.0065203673
0.015624703
0.026610847
0.43454986
0.43619893
0.026732097
0.015697888
0.0065490504
0.0013528788
0.0013548202
0.006579279
0.015774725
0.026858566
0.43791482
0.43970492
0.026989462
0.015853793
0.0066102805
0.0013568151
0.0013588968
0.0066430169
0.015936694
0.027125484
0.44156403
0.44348259
0.027264728
0.016021167
0.0066763987
0.0013610064
0.0013631857
0.0067102219
0.016106489
0.027404906
0.44545273
0.44750901
0.027551559
0.016195216
0.0067452032
0.0013654651
0.3990812
0.030539449
0.017783337
0.0073238896
0.0014242304
0.0014217041
0.007285289
0.017685647
0.03037682
0.39721934
0.39543802
0.030221126
0.017591735
0.0072480687
0.0014192846
0.0014169423
0.0072116507
0.017499179
0.030066736
0.39369408
0.39202189
0.029918913
0.017410065
0.0071764601
0.0014146583
0.0014124661
0.0071427043
0.017323883
0.029774755
0.39042199
0.38889255
0.029637523
0.017241098
0.0071100055
0.001410343
0.0014083183
0.0070787141
0.017161074
0.029503562
0.38742126
0.38601451
0.029376456
0.017084343
0.0070484345
0.0014063605
0.0014044998
0.0070195302
0.017010233
0.029252229
0.38466093
0.38336836
0.029135161
0.016939491
0.006991628
0.001402705
0.0014010054
0.0069650326
0.016871095
0.029020311
0.38212313
0.38093009
0.028912345
0.016805798
0.0069392957
0.0013993586
0.001397797
0.0069148115
0.016742618
0.028806001
0.37978365
0.37868791
0.028706249
0.016682258
0.006891038
0.0013962744
0.0013948305
0.0068684791
0.016623848
0.028607671
0.3776319
0.37662469
0.028515326
0.01656796
0.0068464854
0.0013934143
0.0013920732
0.0068257219
0.016514034
0.028424102
0.37565402
0.37473024
0.028339043
0.016462518
0.0068054545
0.0013907534
0.0013895029
0.0067863743
0.016412784
0.028254646
0.37383721
0.37298423
0.028176215
0.01636526
0.0067676915
0.0013882646
0.0013870879
0.0067501283
0.016319273
0.028097891
0.37215414
0.37135493
0.028025457
0.01627533
0.006732862
0.0013859104
0.0013847882
0.0067167463
0.016232995
0.027953269
0.37056502
0.36977748
0.027889148
0.016193568
0.0067011456
0.00138366
0.001382598
0.0066872227
0.016157389
0.027828843
0.36896329
0.36805536
0.027784971
0.016127772
0.0066748636
0.001381537
0.001380569
0.0066656191
0.016106155
0.027755685
0.36691731
0.36532906
0.027739676
0.016087531
0.0066556854
0.0013791734
0.0013764305
0.0066332077
0.016036861
0.027670475
0.36271489
0.35845836
0.027421827
0.01587933
0.0065647256
0.001367622
0.0013501327
0.0063832369
0.015414938
0.02664966
0.35051618
0.34477161
0.025800738
0.014975927
0.0062164426
0.0013085374
0.001314169
0.0061951173
0.014949669
0.025790502
0.34427141
0.35097731
0.026693078
0.015443799
0.0063924103
0.0013501316
0.0013674209
0.0065636966
0.01587442
0.027411068
0.35850747
0.36281176
0.027667961
0.016034344
0.0066317925
0.0013761139
0.0013790534
0.0066558911
0.016087347
0.027738281
0.36539665
0.36697898
0.027758865
0.016107044
0.0066657427
0.0013804874
0.001381533
0.0066757591
0.016129285
0.027786344
0.3681011
0.36901535
0.027832529
0.016158704
0.0066875777
0.0013825733
0.0013836775
0.0067019779
0.016194941
0.027890311
0.36982071
0.370602
0.02795682
0.016234238
0.0067170624
0.0013847751
0.0013859296
0.0067335537
0.016276418
0.028026297
0.37137907
0.37218073
0.028100608
0.016320086
0.0067502888
0.0013870754
0.0013882856
0.0067682673
0.016366069
0.028176642
0.37300237
0.37386545
0.028257054
0.016413464
0.006786499
0.0013894958
0.0013907804
0.0068060216
0.016463368
0.028339634
0.37475039
0.37567944
0.028426611
0.016514818
0.0068258914
0.0013920766
0.0013934528
0.0068471023
0.016568951
0.028516187
0.37664238
0.37765517
0.028610638
0.016624944
0.0068687784
0.0013948505
0.001396331
0.0068917824
0.016683586
0.028707731
0.3787111
0.37982325
0.028809966
0.016744347
0.0069153725
0.0013978415
0.0013994376
0.0069403301
0.016807941
0.028915361
0.38097613
0.38218488
0.029025777
0.016873667
0.0069659007
0.0014010677
0.0014027842
0.0069927927
0.016942066
0.029139113
0.3834386
0.38474914
0.029257782
0.017012855
0.0070204111
0.0014045452
0.0014063998
0.0070494407
0.017086611
0.02938002
0.38610866
0.38752817
0.029507764
0.017162994
0.0070793274
0.0014083094
0.0014103229
0.0071107048
0.017242614
0.029639743
0.38899802
0.3905328
0.029777582
0.01732516
0.0071430872
0.0014124076
0.0014146069
0.0071770741
0.017411348
0.029920563
0.39213071
0.39380576
0.030069877
0.017500817
0.0072122127
0.0014168833
0.0014192639
0.0072490462
0.017593788
0.03022379
0.39554136
0.39732665
0.030382738
0.017688991
0.0072864858
0.0014217099
0.0014242534
0.0073250283
0.017786268
0.030544243
0.39917856
8.0825125
8.0788491
8.0824909
8.0788051
8.0220327
8.0484169
8.0581405
8.1025318
8.0968942
8.0484342
7.992401
8.0571357
8.0968794
8.078037
8.0194532
7.9820623
7.9488919
7.8201146
7.8589283
7.7184332
7.9219933
7.8855386
7.6589059
7.4773578
7.8226305
7.9827437
8.0479662
7.9172342
7.9687957
8.007269
8.0529826
7.958163
7.916513
7.7814557
7.8437192
7.6975788
7.9610811
7.9228837
7.8764308
7.8165819
7.8636276
7.547465
7.4291998
7.3533209
7.7743867
7.7144543
7.677798
7.7317266
7.3498883
7.4100711
7.2814117
7.2178248
7.1633908
7.2269906
7.5715469
7.6215211
7.6216336
7.8485053
7.9866756
7.9991812
7.9527271
7.908392
0.34697388
0.025373395
0.014740951
0.0061261293
0.0013110111
0.0013390196
0.0063158223
0.015213005
0.026220494
0.35277839
0.35837973
0.026811736
0.015553817
0.0064511365
0.0013570638
0.0013658576
0.0065185036
0.015716463
0.027074476
0.36236705
0.36486581
0.027150642
0.01577207
0.0065436686
0.0013690021
0.001370449
0.0065546937
0.015794016
0.027172112
0.36640895
0.36753366
0.027199343
0.015815262
0.0065642079
0.0013714133
0.001372464
0.0065769694
0.015846352
0.027245844
0.3684383
0.36926702
0.027303667
0.015881508
0.0065907316
0.0013734983
0.0013746198
0.0066066145
0.015922158
0.027370156
0.37006124
0.37085445
0.027439528
0.015963194
0.0066224237
0.0013757154
0.0013768844
0.0066397974
0.016007872
0.027513481
0.37165715
0.37248812
0.02758867
0.016052372
0.0066569753
0.0013780346
0.0013792643
0.0066757058
0.016100482
0.027668399
0.37334161
0.3742369
0.027749592
0.016148667
0.0066943591
0.0013804883
0.0013817997
0.0067146335
0.016200658
0.027835744
0.37515621
0.37611968
0.027923776
0.016253009
0.0067349418
0.0013831151
0.0013845213
0.0067568476
0.016309058
0.02801661
0.37711989
0.3781699
0.028112037
0.016365954
0.0067789808
0.0013859452
0.0013874647
0.0068027756
0.016426763
0.028212797
0.37925993
0.38040197
0.028316493
0.016488648
0.0068268818
0.0013890081
0.0013906485
0.0068525813
0.016554196
0.028425064
0.3815884
0.3828298
0.02853728
0.016621252
0.0068787575
0.0013923242
0.0013940994
0.0069065214
0.016691943
0.028654366
0.38411952
0.38546671
0.028775467
0.01676444
0.0069348907
0.0013959196
0.0013978433
0.0069648819
0.016840687
0.028901802
0.38687127
0.38833694
0.029032219
0.016918907
0.0069955668
0.001399819
0.0014019013
0.007027911
0.017001019
0.029168274
0.38986321
0.39145935
0.029308803
0.017085356
0.0070610529
0.001404042
0.0014062888
0.0070957964
0.017173365
0.029454524
0.39312216
0.39485447
0.029605673
0.017264162
0.0071315362
0.0014086039
0.0014110171
0.0071686531
0.017357916
0.029760809
0.39665283
0.3985198
0.029921215
0.017454421
0.007206772
0.0014135026
0.0014109244
0.0071673162
0.017354285
0.029754485
0.39659782
0.39483349
0.029602567
0.017262601
0.0071309535
0.0014085612
0.0014062603
0.0070952399
0.017171942
0.029451737
0.39311577
0.39145511
0.0293054
0.017083366
0.0070601564
0.0014040032
0.0014018389
0.0070266799
0.016997941
0.029162916
0.38985972
0.38833287
0.029027204
0.016915931
0.0069943042
0.0013997453
0.001397752
0.0069633701
0.016836841
0.028895061
0.38686891
0.38546523
0.028769387
0.016760869
0.00693341
0.0013958235
0.0013939959
0.006904941
0.016687834
0.028647102
0.38410869
0.38282166
0.028532035
0.016618256
0.0068775376
0.001392235
0.0013905706
0.0068515741
0.016551454
0.028419938
0.38158167
0.38039533
0.028313698
0.016487133
0.0068262361
0.0013889514
0.0013874159
0.0068020899
0.016424922
0.028209259
0.37924818
0.37815487
0.028110793
0.016365254
0.0067786017
0.0013859171
0.0013844984
0.006756404
0.016307822
0.028014075
0.37710134
0.37609285
0.02792341
0.016252832
0.006734763
0.0013831084
0.0013817932
0.0067143513
0.016199853
0.027833932
0.375134
0.37421075
0.027749683
0.016148788
0.0066942904
0.001380494
0.0013792643
0.0066754346
0.016099673
0.027666471
0.37331123
0.37245452
0.027588501
0.016052365
0.0066568574
0.0013780427
0.0013768822
0.0066393797
0.016006641
0.027510745
0.37160926
0.37081148
0.027439073
0.015962986
0.0066222103
0.0013757225
0.0013746188
0.0066061373
0.01592082
0.027367332
0.37001354
0.36922032
0.027302319
0.015880817
0.0065903424
0.0013735038
0.0013724618
0.0065763033
0.015844555
0.027242331
0.36838863
0.36748025
0.027198085
0.015814491
0.0065637399
0.0013714278
0.0013704638
0.0065539563
0.015792145
0.027168597
0.36635643
0.36479784
0.027149987
0.015771461
0.0065431891
0.001369064
0.0013659543
0.0065178935
0.015715682
0.02707396
0.36225216
0.35807748
0.026815398
0.015553233
0.00644976
0.0013572947
0.0013391692
0.0063136941
0.015213662
0.026231814
0.35209986
0.34515366
0.025351317
0.014708679
0.0061088492
0.0013107162
0.0012670957
0.0057284009
0.013751333
0.023748661
0.33184913
0.34692287
0.027290485
0.015728074
0.0064553494
0.001339217
0.0013131911
0.0062425052
0.015032655
0.025887785
0.34660005
0.35062224
0.026630778
0.015404417
0.0063799727
0.0013522242
0.0013680921
0.0065610318
0.015868111
0.027399188
0.35837165
0.36250795
0.027643959
0.016019697
0.0066263056
0.0013765896
0.0013792822
0.0066515218
0.016076547
0.027721151
0.36513987
0.36675008
0.027741457
0.016096148
0.0066614179
0.0013806015
0.0013815879
0.0066722398
0.01612068
0.027772945
0.36790459
0.36884093
0.027820104
0.016150793
0.0066843969
0.0013825895
0.0013836767
0.0066993029
0.016188363
0.02788005
0.36967168
0.37047693
0.027947353
0.016228208
0.006714658
0.0013847614
0.0013859149
0.0067315957
0.016271632
0.02801897
0.37128283
0.37210783
0.028093258
0.016315438
0.0067484637
0.0013870535
0.0013882694
0.0067668747
0.016362712
0.028171607
0.3729392
0.37380518
0.028251694
0.016410061
0.0067851565
0.0013894742
0.001390763
0.0068049763
0.016460853
0.028335884
0.37470009
0.37564608
0.028422525
0.016512196
0.0068248596
0.0013920541
0.0013934344
0.0068463256
0.01656716
0.02851369
0.37661507
0.37762909
0.028607242
0.016622769
0.0068679245
0.001394825
0.0013963089
0.006891159
0.016682158
0.028705753
0.37868128
0.37978392
0.028807103
0.016742513
0.0069146484
0.0013978117
0.0013994121
0.0069397741
0.016806666
0.028913558
0.38092738
0.38212313
0.02902319
0.016872052
0.0069652696
0.0014010413
0.0014027707
0.0069923728
0.016941114
0.029137778
0.38336566
0.38466822
0.02925619
0.017011851
0.0070200181
0.001404541
0.0014064174
0.0070492976
0.017086352
0.029379791
0.38601983
0.38743817
0.029507784
0.01716288
0.007079265
0.0014083447
0.001410378
0.0071108535
0.017243113
0.029640895
0.38891499
0.39045415
0.02977855
0.017325593
0.0071432327
0.0014124708
0.0014146765
0.0071773199
0.01741202
0.029921872
0.39205181
0.39371866
0.030070502
0.017501209
0.0072124085
0.0014169519
0.0014193479
0.0072493457
0.017594455
0.030224637
0.39544544
0.39723784
0.030386591
0.017692262
0.0072881826
0.0014218366
0.0014243868
0.0073299054
0.017792712
0.0305485
0.39909178
0.0014109073
0.0071667543
0.017353076
0.02975274
0.39659434
0.39481756
0.029598855
0.017260214
0.007129974
0.0014085141
0.0014061909
0.0070941571
0.017169139
0.02944717
0.39309555
0.39144662
0.029302854
0.017081981
0.0070597105
0.0014039527
0.001401822
0.0070267555
0.01699796
0.029162689
0.38986606
0.38835002
0.02902905
0.01691718
0.0069948468
0.001399766
0.0013978106
0.0069643569
0.016839242
0.028898874
0.38689232
0.38549245
0.028774595
0.01676415
0.0069347481
0.0013959154
0.0013941166
0.0069064404
0.016691678
0.028653446
0.38413881
0.38283317
0.028536069
0.016620554
0.0068783608
0.0013923404
0.0013906422
0.0068518079
0.01655226
0.028421717
0.38157541
0.38037965
0.028313074
0.016486591
0.0068259967
0.0013889803
0.0013874287
0.006802006
0.016424656
0.02820894
0.3792372
0.37814197
0.028110645
0.016365139
0.0067785618
0.001385924
0.0013845039
0.0067563923
0.016307839
0.028014208
0.37709726
0.37609766
0.027923593
0.016252901
0.0067347767
0.0013831147
0.0013818015
0.0067143674
0.016199931
0.027834121
0.37513114
0.37420478
0.02774937
0.016148632
0.0066942364
0.0013805018
0.0013792718
0.0066753172
0.016099369
0.027665977
0.37329951
0.37243742
0.027587276
0.016051684
0.0066566096
0.0013780471
0.0013768861
0.0066390891
0.01600591
0.027509588
0.37159091
0.37078686
0.027437128
0.015961867
0.0066217878
0.0013757246
0.0013746221
0.0066056553
0.015919617
0.027365398
0.36998209
0.36918654
0.027299985
0.015879408
0.0065897814
0.0013735098
0.0013724728
0.0065756954
0.015843051
0.027239905
0.36834356
0.36743819
0.027195607
0.015812953
0.0065631089
0.0013714473
0.0013704932
0.0065533122
0.01579055
0.027166006
0.36630856
0.3647523
0.02714669
0.015769474
0.006542383
0.0013690989
0.0013660019
0.0065172452
0.015714011
0.027071111
0.36222841
0.35809911
0.02681488
0.015553117
0.0064497862
0.001357381
0.0013393683
0.0063153424
0.015217662
0.026238256
0.35225229
0.34544796
0.025368032
0.01471766
0.0061124222
0.0013111888
0.0012684451
0.0057611759
0.013834703
0.023881973
0.33320574
0.36904033
0.021405975
0.012390456
0.0051953359
0.0012372169
0.0013098542
0.0060920483
0.014681218
0.025271238
0.34026764
0.34502667
0.025428628
0.01478053
0.006132183
0.0013077686
0.0013096454
0.0061207434
0.014728139
0.025354649
0.34672193
0.35276251
0.026223667
0.01521459
0.0063166707
0.001338665
0.001356833
0.0064514941
0.015555025
0.026813369
0.35839122
0.36245044
0.027078029
0.015718215