/*--------------------------------*- C++ -*----------------------------------*\
  =========                 |
  \\      /  F ield         | OpenFOAM: The Open Source CFD Toolbox
   \\    /   O peration     | Website:  https://openfoam.org
    \\  /    A nd           | Version:  7
     \\/     M anipulation  |
\*---------------------------------------------------------------------------*/
FoamFile
{
    version     2.0;
    format      ascii;
    class       surfaceScalarField;
    location    "290";
    object      phi;
}
// * * * * * * * * * * * * * * * * * * * * * * * * * * * * * * * * * * * * * //

dimensions      [1 0 -1 0 0 0 0];

internalField   nonuniform List<scalar> 
76009
(
0.0019255147
1.4786003
-1.4801126
-2.0325341
2.0328958
-36.227525
2.0780826
-2.0795721
-2.078889
2.0769349
-34.809302
0.0001822825
0.0017903506
2.0329219
1.4786609
-1.480068
-2.032504
-36.227458
2.0770043
2.0781315
-2.0795088
-2.078794
0.00014415309
-34.809115
-0.0027832005
-9.3251363
-0.0027280931
-0.3831258
0.37473537
0.36800492
-0.39125623
0.3680124
0.37475611
-0.38311682
-0.39125673
-0.012522573
-7.6960816
0.066372677
-7.4066181
0.012579066
-0.012573512
-0.012543389
-10.341682
0.0056932247
-0.054747394
-9.6921049
-0.0056626595
0.38347271
0.37877897
-0.37529972
-0.38007467
0.38347744
-0.38007227
-0.37530198
0.37877662
-9.3275375
7.696105
-0.054726004
-9.6921191
0.066431637
0.37060125
-0.37686517
0.52394226
-0.53754315
-8.2565854
-0.001751277
-0.00015012945
-0.57867312
-0.020082391
0.023899861
-0.024968991
0.032526021
-0.00034417103
-0.56500952
0.032721715
-0.025209037
-0.025333661
0.032606105
-0.011115354
-0.007870782
-2.4810476
0.098740689
0.13264718
-0.12922663
-0.096187242
0.0035173249
-2.6368856
0.094959648
-0.092221612
-0.12668029
0.12820116
-0.13049761
-2.3429031
0.0024227469
-0.47565222
0.0019780147
-0.0015546701
-0.00135217
0.00061043122
-0.57552197
-0.031924027
-0.023512175
0.023754868
0.032310557
-0.52706153
0.0015819964
-0.00063372727
0.00039742279
-0.65446447
-0.0015873819
-0.00046656573
-0.66422824
0.48066632
-0.62373009
0.009689661
0.0062272592
0.0046628715
-0.13144382
-0.51104758
-0.023276759
0.023545635
0.032674334
-0.032774233
-0.0017908205
-0.13253566
-0.10184754
0.097964635
-0.10184725
-0.13253236
-2.3807715
0.002029326
0.136465
0.13354907
-0.13109516
-0.13376267
-2.5352644
0.13600714
-0.13341003
-0.12908932
0.13149271
-2.4761268
2.7730395e-05
-4.8809173e-05
0.0015532883
-0.53360252
-0.00067392756
-0.00077315192
0.001591932
-0.53498769
0.0015530022
-0.53171066
0.00012107918
-0.54558882
-7.0057926e-05
0.032285073
0.03233289
-0.031954349
-0.031951823
4.5279531e-05
-0.5463766
0.032367078
-0.031945227
-0.031967464
0.032325783
-0.54750461
-0.032121077
0.032523783
0.032360474
-0.031949797
0.0028765388
-0.00033342409
0.00014491122
0.032724734
0.03261076
-0.025327148
-0.025204289
-0.56499669
-0.00058498729
-0.65894687
-0.0030005813
-0.00014643605
-0.66618833
-0.0001556162
0.032615792
0.032574529
-0.025408609
-0.025334008
-0.56400269
0.0030678104
-2.6689462e-05
-0.025403653
0.032579225
0.03253743
-0.025402522
-0.56309604
0.00055851699
-0.66464969
0.52524998
-0.003089084
-0.6507002
8.4972794e-06
0.0015169268
8.8429243e-06
-0.54376039
8.7107598e-06
-0.031930138
0.032274898
0.032248876
-0.03191805
-0.56116995
8.8898496e-06
-0.025379642
0.032526278
0.032502946
-0.025364684
0.0046980724
4.1791142e-05
-0.57248518
7.7984591e-06
0.0065675654
-0.12868999
0.00065849191
-0.5179786
7.9661597e-06
-0.50014599
0.0024487562
-2.0270024
-0.10836069
0.13309236
-0.10487495
2.6145254e-05
0.0017675352
-7.7908224
0.51961791
-0.54579942
-0.52576274
6.2614764e-05
-8.2565326
-0.37684353
0.37062206
0.52396072
-0.53751568
0.012505283
0.54782908
0.38619746
-0.3755301
-0.52875346
-10.433037
0.55328052
5.4265105e-05
-0.53173781
-0.51382521
0.53653807
-9.901421
-0.0068964974
0.020364503
2.6815941
-2.1402546
-0.0015270044
-0.013387932
2.6566412
-2.1177519
0.015431249
2.6260237
0.0064755971
-1.8762171
1.8141989
0.021724669
0.030130802
0.042674503
0.035834267
-2.1038192
-0.085006485
-0.0030167117
0.12975787
0.096558642
-0.10472444
0.040356708
-0.0033257329
0.63391392
0.021520736
-2.3269346
-0.0074536968
0.61578282
0.53951446
0.62214616
0.077651483
-0.098075792
-0.13419
0.096481205
0.084346676
0.47528304
-0.0045198113
-0.0062024709
-2.037778
0.094755447
0.12574464
-0.11882201
0.081382758
-2.1869341
-0.19044858
-1.9495211
0.0027769009
0.14506462
-0.0049029846
0.0010798185
-0.14280026
-2.1781974
-0.0065974195
-2.6301274
0.0051416644
-0.0024004317
-2.655844
2.3144789
0.095939002
0.1306013
-0.12956683
-0.095140676
0.00048342918
-2.3105737
0.0015508908
0.13182169
0.096407206
-0.094780405
-0.12924688
2.2165317
-2.200609
3.9835912e-05
-0.12990466
0.13279539
0.13217047
-0.12910832
0.62861893
-0.064473785
-0.0018146697
0.63339425
0.54554044
0.542314
0.098763808
-0.13602974
-0.13520101
0.097965772
0.10541924
-0.0018727015
0.52329352
0.0054658066
-0.0036869405
-2.0661688
-0.10881332
0.13349692
0.13069
0.0018263149
0.061898437
2.0916511e-05
-2.6128582
0.6325
0.54163969
0.53930984
0.61782517
2.3986167e-05
0.097969876
-0.13489552
-0.13471588
0.097672527
-2.1972459
0.0010831008
-0.0040271248
0.52633921
0.00074412209
0.52774501
-0.003953681
-0.00029862792
-0.0045436275
-0.00010413628
-0.00086912209
-0.0043928498
-0.0023716432
-0.51996346
-0.0032406143
-2.7512006e-06
-0.51580991
0.0098703713
0.007951329
-0.0030876794
-0.020281222
0.0032784119
0.57481663
-0.037871405
-0.0037968617
0.57866279
0.0033694596
-0.00058586363
0.023902684
-0.020078978
-0.024964661
0.032528973
-0.023746274
-0.11764074
0.00056507198
0.16439327
0.00033135823
-0.020335694
0.032735472
-0.02983925
-0.010817528
-0.63284526
-0.15569696
-0.0011152371
-0.0012432204
0.15374814
0.15583791
0.13479573
-0.0070448683
-0.022794581
0.01894248
0.023163664
-0.028224132
-0.0030892847
-0.57766257
0.12946254
-0.00066595641
-0.0011283375
0.16273411
-0.0002386495
6.1128908e-05
0.00013828421
0.13079722
-0.00012593163
5.0640363e-07
0.11836257
-0.00061994584
0.00018510837
0.00039327245
-0.00013205544
8.1905793e-05
0.00013665173
-0.1456674
-0.00021137234
-7.9224472e-05
-0.13145249
5.1795359e-05
-3.6719353e-05
-0.1640779
-0.00073205281
-0.14541979
-0.0003751885
-3.5072662e-05
-0.00034995247
-0.14389594
-0.0012742073
-0.00013834092
-0.13067016
-0.00069086301
-0.00064666523
-0.0052680538
-0.0094313226
-0.00098150483
0.00012696559
0.14495938
0.00028616647
-0.15425629
-0.00054754232
0.028518926
0.13140707
-8.5755066e-06
-0.16505851
0.49532312
0.032998554
0.032213192
-0.032367089
-0.035168071
-0.57714585
0.03256593
-0.032444843
0.031895592
-0.03230767
0.031390161
-0.13148841
-0.0001606955
-0.00013789783
-5.5951049e-05
-0.00056747954
-0.16404188
0.14541946
-0.00046078343
-0.14532677
-6.3046468e-05
-0.00025145416
-0.00011016673
0.0001781794
-0.14478575
-0.00024767971
-0.00013183066
-0.12999602
-0.00011133289
-9.6733152e-05
-0.16215575
-0.00061868565
-0.14491446
-0.00033972611
-8.9079077e-05
0.0011800162
-0.00018656456
-0.14553722
-0.00032795081
-4.2748008e-05
-0.00038073814
-8.0844005e-05
-0.00070785245
-0.13055998
-0.00027699914
0.00011786908
-0.00073160454
-0.16232191
-0.00031924255
-0.1447445
-6.9441226e-05
-1.5807276e-05
-0.14376838
0.14392105
-4.5030241e-05
-0.00041107546
0.032651548
-0.1627933
-0.00039763137
0.12979197
0.035171955
-0.59576821
-0.032652967
0.032527934
0.52685839
0.024223915
-0.024816
-0.024814591
0.024224762
0.032528295
0.010824325
-0.57714901
0.032212129
0.03299884
-0.028520178
-0.032369218
-0.63285109
-0.020336429
0.023746998
0.032734907
-0.029841196
-0.00017214832
-0.56401822
0.032611475
-0.025340708
-0.025418026
0.032567373
-4.8226298e-05
-0.56311277
0.032572655
-0.025413118
-0.025415557
0.03252685
-0.5611871
0.032516627
-0.025392487
-0.025381626
0.032488474
-1.5542592e-05
6.2094709e-05
0.0065246895
-1.3996792e-05
0.0047331984
-0.57249308
0.00027055384
0.0066590143
0.0046907868
-0.57467103
0.00072810284
0.0045637307
-0.57600233
0.0069628315
0.00059371681
0.0044072915
-0.57667058
0.0073881631
-0.0098662369
0.0032508502
-0.57482333
0.0033593147
-0.12574309
9.5976093e-06
-0.51581426
0.0079439473
-0.035815582
-2.0377854
-0.084347753
0.094758046
-0.11882647
0.081367165
-1.8142091
0.04268099
0.03011856
0.021722446
-2.6260321
-0.021532788
-2.1869373
-0.19045349
0.63391972
-0.04033425
-2.3269395
-0.0074844493
0.62215211
0.53951596
0.61578616
0.077649163
-0.098077412
-0.13419578
0.096475439
0.085014611
-0.0062055995
0.47528792
-0.0045249647
-2.1038396
-0.0030241496
-0.1047353
0.12975049
0.096551966
-2.6566547
-0.0033398262
-0.013383426
-0.54781167
0.015415483
-2.1177565
0.0068814071
-0.38618428
-1.8762205
0.0064666867
-0.37554229
-0.52876955
0.012497889
-10.433065
0.004896682
-0.0066017733
-2.63013
1.9495221
0.0010700703
-2.1781974
-0.14280007
0.0027646863
0.14506337
-2.3144785
0.0015257259
0.096406728
-0.094780528
-0.12925009
0.13181743
-0.0051307515
-2.3105714
0.00046483664
0.095939125
-0.095140311
-0.12956857
0.13059861
-0.0024123799
-2.6558462
0.53175762
-2.6830687
0.0024587707
2.1402578
0.0061821685
7.7909011
-9.9014531
-0.51385677
0.53649626
0.55325737
2.1678301e-05
0.51958757
-0.54583871
0.50009184
-0.5258248
2.4193583e-05
-2.0661936
-0.10543236
0.13068126
0.13348162
-0.10883323
-0.0024711672
0.064433115
-2.681609
0.0018036722
0.62862844
0.63340172
0.54231333
0.54554427
-2.216533
-0.0018643803
-0.13603441
0.098757378
0.097950243
-0.13521488
0.005473044
0.52330175
-0.0018803986
-0.0036983156
0.51997063
-0.00328638
-0.0023699516
0.00086407753
0.00029142338
-0.52775471
-0.00011686372
-0.0039696662
-0.0010969562
0.00091916316
-0.00086415748
-0.037713679
0.0038062745
-0.037711738
0.0030929134
-0.037880385
-0.020286616
0.11754071
0.50182707
0.0072181203
0.0087004631
-0.65557299
-2.2128723
-0.11753775
0.12602535
0.091445831
-0.1025037
0.09144357
0.12602568
-0.10250757
0.10985471
0.096432053
0.10985091
-0.096293577
-0.098014529
0.09643646
-0.098010281
-0.096289163
-2.6177409
0.65557085
0.0030233843
-0.47147809
0.00039003764
0.50182432
0.0087021676
0.007225392
-0.0040891237
-0.51553826
-0.02096354
0.027463628
-0.030620717
0.031593284
0.018276462
-0.0050482143
-0.050113607
-0.55417797
0.15887807
0.1561143
0.13519612
0.15524547
-0.011991716
-0.0021509246
0.023152151
0.018821691
-0.02468489
-0.03356576
-0.58006272
0.1186241
-0.001324555
-0.0021795996
-0.00014361374
0.00011530989
-0.13044648
-0.00016725322
-0.000622509
-0.0022422219
-0.0016386404
0.0012249194
0.14320839
-0.001356247
-0.010123167
0.12966702
-0.0059969513
2.1205091e-05
-0.00096749564
-0.0013495196
-0.00033263538
-6.1181616e-05
-0.14370196
-0.0011734392
-0.00018131512
-0.032530729
-0.13048526
-0.00080598716
-0.018276648
0.032528849
-0.029839103
-0.025281295
0.024194675
-0.56242955
-0.029836569
-0.025279289
0.024196456
0.0040931675
-0.020965749
0.027462289
0.031591238
-0.030623283
-0.51553975
0.0070387789
0.15569998
0.15584012
0.13479716
0.15375114
-0.0031017971
-0.57766732
-0.022796185
0.018940969
-0.028227158
0.023161185
0.11764307
-0.001245481
-0.0011164256
0.00032851176
0.00056431809
-0.00018455775
0.0011834759
-0.14553959
-0.00033080985
-4.6114224e-05
0.00071023404
-0.13056149
-0.00027929022
0.0006941615
0.0003790674
-0.13140895
-0.13067253
0.00034866002
-0.0006483509
-0.0052707387
0.00066901996
0.14389912
-0.0094349871
-0.00098434786
0.12946566
-0.0011309116
-0.00024239468
5.9353151e-05
-0.001277926
-0.00014056739
-0.14496217
-8.3636109e-05
0.00012923937
0.00028345672
-0.00055134546
-0.15425851
-1.0310011e-05
-0.16506031
0.00011523925
-0.00073303258
-0.16232322
-0.00032129392
-7.3408085e-05
-0.1447462
-1.3001044e-05
0.14392287
-0.00041206624
-4.946353e-05
-0.14376964
0.12979301
-0.00039787506
-0.16279414
0.16228992
-2.4757512e-05
-0.00022350747
0.032523056
0.12951862
-0.00021234274
-0.00016140645
0.032254728
0.02412215
-0.024641685
-0.032523629
0.032252261
-0.024641598
0.024121118
-0.0015847232
2.0770221
-2.078791
-2.0794405
2.0782433
-34.80908
1.4787744
2.0330233
-2.0324449
-1.4799965
-36.227347
-0.53051695
-10.422636
-0.36960965
0.37463705
0.058672006
0.001987929
0.13647405
-0.13375612
-0.13108152
0.13356567
-0.0034758561
-2.535274
0.13149223
0.13601774
-0.13340114
-0.1290903
-2.4761301
0.00068773493
-0.52525048
0.0015204352
-0.0016064524
-0.00013503811
-0.54637942
5.6272469e-05
0.032373064
0.032329932
-0.031964012
-0.031939863
3.3472852e-05
-0.53498972
-0.00076237422
-0.53360374
0.0015629631
0.00054510007
-0.0030598198
0.00016154259
-0.6646517
-0.0030862254
-0.65070096
0.54376114
4.3696372e-05
-0.56117099
0.0325025
0.032528819
-0.025377568
-0.025364935
8.6491096e-05
-0.031918511
0.03224855
0.032277812
-0.031927515
-0.54559077
0.032287259
-0.031950147
-0.031950078
0.032337703
0.00017055586
-0.56309876
0.03253903
0.032583385
-0.025400109
-0.025400999
0.002988443
0.00034569185
-0.56400693
0.032621055
0.032577842
-0.025405573
-0.025329399
0.00059582459
-0.66619168
0.53171313
-0.0028614216
-0.00038635278
-0.65895105
0.0015707913
-0.0015711263
-0.54750797
0.032530374
0.032365851
-0.031945148
-0.032115124
-0.00060222684
0.00015442905
-0.56500192
0.032730616
0.03261525
-0.025323037
-0.025199037
0.0015701035
0.032534248
0.5755263
-0.024959843
-0.020073331
0.023909288
-0.57866893
-0.0096834058
0.12921536
0.52706462
-0.65446959
-0.00062663824
-2.6369013
0.13266192
-0.096170172
0.098761558
0.011139264
5.9852664e-05
-0.0021307548
1.4729473e-05
-3.5864032e-05
0.00012151403
-0.002587062
1.8919608e-05
-4.0016623e-05
0.00018921016
-0.002957777
2.2135685e-05
-4.3733725e-05
0.00026793818
-0.003331809
2.4873329e-05
-4.7840737e-05
-0.055040665
0.00049800355
-0.0004648575
-0.0001711142
-0.00023159341
-0.055098113
0.00030579998
-0.00020089795
0.00018413989
-0.00016316717
-0.0033955553
1.8057842e-05
-2.2737571e-05
-0.00010098082
-0.0030155364
1.6687634e-05
-2.1114426e-05
-4.566509e-05
-0.0026382856
1.5497342e-05
-1.958915e-05
-0.002172953
1.417635e-05
-1.7643222e-05
1.9609979e-05
-0.0021901035
3.1563363e-06
-5.6154139e-06
4.0347516e-05
-0.0026566373
3.8746247e-06
-6.2600086e-06
6.3247686e-05
-0.0030359898
4.2615485e-06
-6.7080039e-06
8.9223895e-05
-0.0034189561
4.6056244e-06
-7.1809187e-06
-0.055363992
0.00010760478
-6.4246177e-05
0.00031174449
-3.4801544e-05
-0.055699621
7.0283976e-05
-2.3515887e-05
0.00032366306
-2.4615592e-05
-0.0034293138
3.208456e-06
-3.0355173e-06
-1.5401938e-05
-0.0030452965
2.9964696e-06
-2.9020768e-06
-7.1402733e-06
-0.0026649424
2.8605397e-06
-2.8143504e-06
-0.0021972735
2.8033079e-06
-2.7736087e-06
2.639154e-06
-0.0021998256
1.5472838e-06
-1.6331816e-06
5.2287939e-06
-0.0026675544
1.6939624e-06
-1.670973e-06
7.9301417e-06
-0.0030481081
1.8237454e-06
-1.7129798e-06
1.0850711e-05
-0.003432446
1.9831379e-06
-1.771375e-06
-0.055984551
4.8597582e-05
-1.2579143e-05
0.0002597628
-5.0201743e-06
-0.056179256
3.9285912e-05
-1.1081132e-05
0.00017152079
-3.7484982e-06
-0.0034340056
1.8525279e-06
-1.5642901e-06
-2.4926197e-06
-0.0030495744
1.7192803e-06
-1.5085613e-06
-1.2476409e-06
-0.0026689491
1.6117539e-06
-1.4612868e-06
-0.0022011861
1.5249597e-06
-1.412012e-06
9.7963775e-07
-0.0022021954
1.2588449e-06
-1.2293013e-06
1.8380228e-06
-0.0026698795
1.3757521e-06
-1.3036504e-06
2.6456419e-06
-0.0030504969
1.4779197e-06
-1.3629598e-06
3.440988e-06
-0.0034349661
1.5903121e-06
-1.4250927e-06
-0.056292564
3.0679305e-05
-1.0585303e-05
9.6655512e-05
-3.0416674e-06
-0.05635098
2.3919536e-05
-9.6304865e-06
4.7168819e-05
-2.3460424e-06
-0.0034357658
1.3629953e-06
-1.2583189e-06
-1.6367179e-06
-0.0030512809
1.2726905e-06
-1.1974637e-06
-8.7586367e-07
-0.0026706892
1.188228e-06
-1.1381623e-06
-0.0022031005
1.0930636e-06
-1.0637569e-06
8.1829348e-07
-0.00220393
9.0247132e-07
-8.9052794e-07
1.4906714e-06
-0.0026713884
9.8662821e-07
-9.5931771e-07
2.1013298e-06
-0.003051935
1.056918e-06
-1.0131463e-06
2.6915862e-06
-0.0034364176
1.1290316e-06
-1.0675081e-06
-0.05637884
1.8665196e-05
-8.3141922e-06
2.0201011e-05
-2.4259688e-06
-0.056391885
1.4834435e-05
-6.9972886e-06
7.6338472e-06
-1.9108489e-06
-0.0034369724
9.3181195e-07
-8.9188033e-07
-1.3730156e-06
-0.0030525009
8.7371173e-07
-8.4541135e-07
-7.6811878e-07
-0.0026720096
8.160887e-07
-7.9935594e-07
-0.002204704
7.4640719e-07
-7.4049756e-07
7.2750536e-07
-0.0022054307
6.1547268e-07
-6.1571078e-07
1.2769206e-06
-0.0026725672
6.7419889e-07
-6.6569748e-07
1.7460404e-06
-0.0030529875
7.2222427e-07
-7.045023e-07
2.1845613e-06
-0.0034374374
7.6993115e-07
-7.4343573e-07
-0.056398385
1.2020304e-05
-5.8437329e-06
2.5078307e-06
-1.9984932e-06
-0.056402007
9.8999613e-06
-4.8897116e-06
6.1049921e-07
-1.6185453e-06
-0.0034378351
6.4019289e-07
-6.2231367e-07
-1.2032709e-06
-0.0030534136
6.0053204e-07
-5.8960907e-07
-6.9743115e-07
-0.0026730757
5.5997422e-07
-5.571072e-07
-0.0022061234
5.1030951e-07
-5.1505282e-07
6.7716207e-07
-0.0022067911
4.2350214e-07
-4.3199798e-07
1.1455815e-06
-0.002673542
4.6555586e-07
-4.6723799e-07
1.5188775e-06
-0.0030537921
4.9990283e-07
-4.9438806e-07
1.8482172e-06
-0.0034381763
5.3328147e-07
-5.214346e-07
-0.056404228
8.2036135e-06
-4.0821336e-06
-5.1773545e-08
-1.7303887e-06
-0.056405604
6.7420961e-06
-3.3771006e-06
-2.5872901e-07
-1.4402087e-06
-0.0034384725
4.4081964e-07
-4.3455447e-07
-1.1038439e-06
-0.003054129
4.1315788e-07
-4.1235425e-07
-6.6306589e-07
-0.0026739765
3.8446762e-07
-3.9024658e-07
-0.0022074424
3.4960681e-07
-3.6136673e-07
6.5658595e-07
-0.0022080808
2.7916838e-07
-2.9705933e-07
1.075732e-06
-0.0026743823
3.062968e-07
-3.1951885e-07
1.3823368e-06
-0.0030544278
3.2897277e-07
-3.3672522e-07
1.6353455e-06
-0.0034387222
3.5055706e-07
-3.5385905e-07
-0.056406294
5.3027388e-06
-2.7055167e-06
-2.7140174e-07
-1.5661599e-06
-0.056406338
3.6837991e-06
-1.9815326e-06
-9.2676147e-08
-1.3386824e-06
-0.0034389299
2.4958778e-07
-2.6934715e-07
-1.0560356e-06
-0.0030546881
2.3546133e-07
-2.5770698e-07
-6.5120723e-07
-0.0026747612
2.2049457e-07
-2.4630188e-07
-0.0022087039
2.0318417e-07
-2.3131435e-07
6.5512397e-07
-0.0022093157
1.1648678e-07
-1.601524e-07
1.044997e-06
-0.0026751063
1.2112601e-07
-1.6598729e-07
1.3115728e-06
-0.0030549109
1.2662841e-07
-1.7046455e-07
1.515038e-06
-0.0034390896
1.3157745e-07
-1.752816e-07
-0.056405756
1.7995489e-06
-1.1622147e-06
2.9624376e-07
-1.4856867e-06
-0.056404365
-3.2047147e-07
-3.6336166e-07
7.7830845e-07
-1.2979152e-06
-0.0034391846
-2.5320792e-09
-8.9979443e-08
-1.0461535e-06
-0.0030550738
3.3364983e-09
-9.189787e-08
-6.6044295e-07
-0.0026754059
9.0704291e-09
-9.457953e-08
-0.002209897
1.9111015e-08
-9.8199611e-08
6.7283825e-07
-0.0022104797
-7.4357849e-08
-1.5284437e-08
1.0564304e-06
-0.0026756894
-9.9377483e-08
-4.2863299e-10
1.2956335e-06
-0.003055207
-1.1602299e-07
1.0228898e-08
1.4729371e-06
-0.0034392489
-1.3239834e-07
1.9394204e-08
-0.056402326
-2.35263e-06
5.3167787e-07
1.2552745e-06
-1.4645913e-06
-0.056399701
-3.6239941e-06
9.9027859e-07
1.473354e-06
-1.3005495e-06
-0.0034392726
-2.1508459e-07
7.4870464e-08
-1.0622513e-06
-0.0030553149
-1.9235264e-07
6.2064102e-08
-6.8399815e-07
-0.0026759462
-1.6863673e-07
4.7501549e-08
-0.0022110567
-1.3421311e-07
2.7192825e-08
6.9351704e-07
-0.0022116411
-1.2881317e-07
1.9980806e-08
1.0713981e-06
-0.0026762008
-1.6064084e-07
3.7458308e-08
1.2948824e-06
-0.0030554052
-1.8282676e-07
4.9752821e-08
1.445766e-06
-0.0034392794
-2.0429288e-07
6.0280999e-08
-0.05639679
-3.4374486e-06
8.0175515e-07
1.170458e-06
-1.4164636e-06
-0.056394008
-1.5154508e-06
-1.3612673e-07
2.862688e-07
-1.282521e-06
-0.0034392934
-8.5517188e-08
-3.4448612e-08
-1.0733275e-06
-0.0030555033
-7.4964193e-08
-3.6061356e-08
-7.0356456e-07
-0.0026764669
-6.4951939e-08
-3.8581687e-08
-0.0022122517
-5.0000008e-08
-4.2985315e-08
7.0935818e-07
-0.0022129062
9.9899435e-08
-1.546494e-07
1.0738336e-06
-0.002676772
1.1344988e-07
-1.7273129e-07
1.2718507e-06
-0.0030556396
1.2498307e-07
-1.8665224e-07
1.3881145e-06
-0.003439344
1.3456123e-07
-2.001924e-07
-0.056391773
2.0069301e-06
-1.7271715e-06
-1.127241e-06
-1.3936595e-06
-0.056390279
6.3887776e-06
-3.6250087e-06
-2.8638188e-06
-1.2847943e-06
-0.0034394625
4.1161794e-07
-4.0201358e-07
-1.092435e-06
-0.0030558386
3.7725208e-07
-3.7063964e-07
-7.2702559e-07
-0.0026771388
3.3864413e-07
-3.3730626e-07
-0.0022136296
2.8857315e-07
-2.9215689e-07
7.3545625e-07
-0.0022144168
4.6849989e-07
-4.1675834e-07
1.0988313e-06
-0.0026775672
5.5081145e-07
-4.8576701e-07
1.2828419e-06
-0.0030560997
6.1299647e-07
-5.3592472e-07
1.3797579e-06
-0.0034396471
6.7018404e-07
-5.8248781e-07
-0.056389614
1.0429626e-05
-5.2940498e-06
-4.4203506e-06
-1.4057695e-06
-0.056389497
1.2830463e-05
-6.1796402e-06
-5.3627854e-06
-1.3124704e-06
-0.0034398819
8.20272e-07
-6.7878034e-07
-1.1286234e-06
-0.0030564087
7.4910101e-07
-6.2394618e-07
-7.5725991e-07
-0.0026780459
6.7202071e-07
-5.6470236e-07
-0.002215261
5.703551e-07
-4.8340662e-07
7.8635469e-07
-0.0022161634
5.7069336e-07
-4.5492232e-07
1.1770099e-06
-0.0026785781
6.7442323e-07
-5.3303558e-07
1.3744756e-06
-0.0030567689
7.5273081e-07
-5.9010244e-07
1.4781804e-06
-0.0034401679
8.2510083e-07
-6.428354e-07
-0.056389586
1.2945734e-05
-5.9053984e-06
-5.4732816e-06
-1.6111349e-06
-0.056389239
1.0802981e-05
-4.7616727e-06
-4.7773252e-06
-1.4817026e-06
-0.0034404582
6.850557e-07
-5.2422976e-07
-1.2546002e-06
-0.0030571375
6.2386012e-07
-4.8248483e-07
-8.3085258e-07
-0.0026791232
5.5825171e-07
-4.3714607e-07
-0.0022170918
4.7230853e-07
-3.7471394e-07
8.8355157e-07
-0.0022180513
3.040073e-07
-2.2877159e-07
1.34912e-06
-0.0026796763
3.5259783e-07
-2.6530277e-07
1.6121136e-06
-0.0030575071
3.9804116e-07
-2.9167121e-07
1.7747413e-06
-0.0034407457
4.4092891e-07
-3.1616836e-07
-0.056388111
7.0138161e-06
-2.8388953e-06
-3.5274779e-06
-1.8741557e-06
-0.056386068
2.442803e-06
-7.6127552e-07
-1.8504841e-06
-1.7033508e-06
-0.0034409665
1.4251728e-07
-9.2388497e-08
-1.4307369e-06
-0.0030578165
1.2368034e-07
-8.6834738e-08
-9.3841944e-07
-0.0026801903
1.0242397e-07
-8.0626694e-08
-0.0022189994
8.1177773e-08
-7.1470881e-08
8.8498247e-07
-0.0022198523
-8.7711987e-08
5.5356214e-08
1.319656e-06
-0.002680611
-8.5471606e-08
7.1363232e-08
1.537834e-06
-0.0030580332
-8.4543809e-08
8.2970091e-08
1.6466904e-06
-0.0034410806
-8.80658e-08
9.3282298e-08
-0.056383854
-1.2971417e-06
9.5839114e-07
-2.2933565e-07
-1.9503528e-06
-3.4473419e-06
2.0738561e-06
1.4305506e-07
-1.7734301e-06
-2.3092144e-07
2.1844025e-07
-1.4932396e-06
-2.1609051e-07
1.9866284e-07
-9.8615524e-07
-2.0630926e-07
1.7622772e-07
-1.9496914e-07
1.4354148e-07
-1.4638117e-06
0.082376109
-2.0474118e-06
-1.9896783e-06
-1.3817576e-06
0.003543828
-1.3058603e-07
-1.1992387e-06
0.0030885582
-1.152607e-07
-8.1049523e-07
0.0026566763
-9.7312171e-08
0.0021582318
-7.1080303e-08
6.6606474e-07
0.0021573508
1.2683819e-07
9.2190154e-07
0.0026562161
1.1871417e-07
9.7768086e-07
0.0030883029
1.1482669e-07
9.2661515e-07
0.0035436765
1.1451526e-07
0.082376426
7.4937281e-07
-1.4367612e-06
-1.3964626e-06
0.082378125
3.924162e-06
-1.7837627e-06
-1.3346722e-06
0.0035434346
3.2259291e-07
-1.1813854e-06
0.003087971
3.0228628e-07
-8.176248e-07
0.0026556772
2.774431e-07
0.0021563785
2.3590286e-07
9.4041669e-07
0.0021553439
3.9731687e-07
1.4544967e-06
0.0026550467
4.6873498e-07
1.7735726e-06
0.003087529
5.2069247e-07
2.0086716e-06
0.0035430725
5.6789204e-07
0.082381521
7.6621732e-06
-2.0359618e-06
-2.0055882e-06
0.082384687
1.1061916e-05
-1.4193456e-06
-1.7557498e-06
0.0035427
8.0770222e-07
-1.4241277e-06
0.0030870825
7.3861471e-07
-9.0579676e-07
0.0026544218
6.6470118e-07
0.002154347
5.6342703e-07
8.8195363e-07
0.0021533884
6.4726466e-07
1.3877073e-06
0.0026538239
7.6657197e-07
1.7093559e-06
0.0030866597
8.5386365e-07
1.94894e-06
0.0035423503
9.3517134e-07
0.082387543
1.2905171e-05
-8.6721915e-07
-1.9440994e-06
0.082390465
1.2323608e-05
-4.704877e-07
-1.7002076e-06
0.0035420381
8.8862968e-07
-1.3752056e-06
0.0030862731
8.1066648e-07
-8.7272797e-07
0.0026532661
7.2729257e-07
0.0021524718
6.1419645e-07
8.6259987e-07
0.0021516147
4.630121e-07
1.3733268e-06
0.0026527592
5.4698441e-07
1.7125501e-06
0.0030859377
6.0920201e-07
1.975642e-06
0.0035417771
6.6801269e-07
0.082393699
9.3126679e-06
-1.4115833e-07
-1.9436166e-06
0.082397101
4.7236175e-06
2.061459e-07
-1.6796428e-06
0.0035415919
3.3278911e-07
-1.3375188e-06
0.0030856694
3.0343069e-07
-8.350041e-07
0.0026523223
2.7295123e-07
0.0021508348
2.3346724e-07
7.7692794e-07
0.0021501286
2.9126949e-08
1.234414e-06
0.002651954
2.4274277e-08
1.5358369e-06
0.003085472
2.0964574e-08
1.7679041e-06
0.0035414766
1.7871038e-08
0.082400377
3.6629768e-08
4.6235756e-07
-1.6384696e-06
0.082403571
-3.685803e-06
6.1496447e-07
-1.426354e-06
0.0035414092
-2.3027563e-07
-1.1469974e-06
0.003085319
-2.0130776e-07
-7.2538864e-07
0.0026516368
-1.6937779e-07
0.0021494774
-1.2415395e-07
7.176204e-07
0.0021488544
-2.233841e-07
1.140732e-06
0.0026513344
-2.8138577e-07
1.4229e-06
0.0030851809
-3.2690387e-07
1.646216e-06
0.0035413511
-3.6950118e-07
0.082406721
-5.7462317e-06
8.0447677e-07
-1.6994249e-06
0.082409578
-5.954163e-06
1.173344e-06
-1.4545754e-06
0.0035412826
-3.9139692e-07
-1.1482185e-06
0.0030850308
-3.4860413e-07
-7.1226731e-07
0.0026510315
-3.0162172e-07
0.0021482467
-2.3883377e-07
7.0306568e-07
0.0021476313
-1.6193038e-07
1.141188e-06
0.0026507072
-2.1322591e-07
1.453485e-06
0.0030848532
-2.5075227e-07
1.710688e-06
0.0035411779
-2.8492682e-07
0.082411828
-4.5074665e-06
1.614947e-06
-1.7073146e-06
0.082413335
-2.2524965e-06
2.1326665e-06
-1.4392646e-06
0.0035410222
-1.1479794e-07
-1.1211591e-06
0.0030846328
-9.4289929e-08
-6.8577116e-07
0.0026503525
-7.152963e-08
0.0021470055
-4.0839581e-08
6.750845e-07
0.0021463653
8.1134615e-08
1.1111977e-06
0.0026499659
7.1371588e-08
1.4384933e-06
0.0030843684
6.3610577e-08
1.7171921e-06
0.0035408181
5.6906947e-08
0.082414052
4.1949274e-08
2.758219e-06
-1.7538516e-06
0.082414015
1.9819046e-06
3.4927164e-06
-1.4536334e-06
0.0035405653
2.0217521e-07
-1.1136488e-06
0.0030840664
1.9750768e-07
-6.6833521e-07
0.0026495483
1.9288512e-07
0.0021457144
1.8574745e-07
6.6956315e-07
0.0021450519
2.7218752e-07
1.1289391e-06
0.0026491034
2.9183025e-07
1.4910928e-06
0.0030837277
3.0553269e-07
1.8182181e-06
0.0035402699
3.1884562e-07
0.082413174
3.5223641e-06
4.4396731e-06
-1.9178146e-06
0.08241138
4.768735e-06
5.6850273e-06
-1.553289e-06
0.0035399304
4.1585329e-07
-1.1578138e-06
0.0030833493
3.9609501e-07
-6.7920769e-07
0.0026486336
3.7563843e-07
0.0021443754
3.4688449e-07
6.9317637e-07
0.0021436865
4.1973316e-07
1.2077763e-06
0.0026481291
4.5575721e-07
1.643048e-06
0.0030829325
4.8159734e-07
2.0564869e-06
0.0035395435
5.0673747e-07
0.082408401
5.898126e-06
7.3404754e-06
-2.2372592e-06
0.082403473
7.1282456e-06
9.937266e-06
-1.7647661e-06
0.0035391033
6.0797904e-07
-1.2772853e-06
0.0030824683
5.7729048e-07
-7.2309608e-07
0.0026475891
5.4589753e-07
0.0021429713
5.0250634e-07
7.5849065e-07
0.0021422254
6.032418e-07
1.3660151e-06
0.0026470001
6.5578583e-07
1.91832e-06
0.0030819445
6.9391354e-07
2.4629247e-06
0.0035385976
7.3108872e-07
0.082394565
8.6036711e-06
1.4788312e-05
-2.7551515e-06
0.082376644
1.0392898e-05
2.5117323e-05
-2.1171404e-06
0.0035380101
8.8146496e-07
-1.484708e-06
0.0030813495
8.3638995e-07
-8.0986167e-07
0.0026463511
7.9053087e-07
0.0021414343
7.2760011e-07
8.7175414e-07
0.00214059
8.7522118e-07
1.6313548e-06
0.002645628
9.5010889e-07
2.357343e-06
0.0030806757
1.0048206e-06
3.0950099e-06
0.0035373428
1.0586402e-06
0.082338434
1.247366e-05
4.7497241e-05
-3.5891727e-06
0.082258431
1.4660413e-05
9.2851471e-05
-2.7047381e-06
0.0035365673
1.254163e-06
-1.8432941e-06
0.0030798946
1.1924471e-06
-9.6499914e-07
0.0026448074
1.1307386e-06
0.0021396704
1.0476537e-06
1.1005932e-06
0.0021386254
1.2028773e-06
2.1366917e-06
0.0026438543
1.2925811e-06
3.1656029e-06
0.0030789859
1.3575745e-06
4.2285592e-06
0.0035356718
1.4229194e-06
0.082103018
1.6411662e-05
0.00017390921
-6.4744634e-06
0.081835403
1.7074937e-05
0.00029630106
-4.757754e-06
0.0035342637
1.5440969e-06
-3.1232509e-06
0.0030775834
1.4874081e-06
-1.5549194e-06
0.0026424624
1.4355975e-06
0.0021372222
1.373177e-06
2.969273e-06
0.0021344504
1.3502093e-06
6.1705906e-06
0.0026395551
1.4000704e-06
9.6600549e-06
0.0030744888
1.4290763e-06
1.3551556e-05
0.0035308921
1.4633127e-06
0.081440435
1.5444143e-05
0.00044167281
-3.8932451e-05
0.080971512
1.5685141e-05
0.00056245521
-2.7234266e-05
0.0035207098
1.6934028e-06
-1.6988453e-05
0.0030655464
1.6939543e-06
-7.9668547e-06
0.0026316854
1.7104716e-06
0.0021275801
1.7067224e-06
1.899639e-05
0.0021104317
1.3087552e-06
4.1623634e-05
0.0026114525
1.4803247e-06
6.7699295e-05
0.0030422285
1.5039332e-06
9.7886477e-05
0.0034936506
1.4776868e-06
0.080572833
1.7854568e-05
0.00058631529
-0.00019494621
0.080462426
7.6500522e-05
0.00053465337
-0.00013406622
0.00344539
5.4386073e-06
-8.2052696e-05
0.0030018417
5.0611497e-06
-3.7493273e-05
0.0025779069
4.4839508e-06
0.0020835727
3.542099e-06
5.4877127e-05
0.0020415072
1.9254464e-06
0.00011658615
0.0025314896
3.6311946e-06
0.00018687335
0.0029488238
4.8687685e-06
0.00026818213
0.0033830479
5.9068075e-06
0.080509764
0.00012557361
0.00059327468
-0.0010142333
0.00040197207
0.0016995337
-0.00074077862
4.1422887e-05
-0.00048648037
4.0987847e-05
-0.00024304414
3.6910314e-05
2.5958527e-05
5.5786302e-05
-0.0020775268
-5.1101108e-06
-1.7865579e-07
0.00011896813
-0.0025709406
-1.3660448e-06
-4.5534334e-06
0.000191014
-0.0029938354
1.1725597e-06
-7.8646056e-06
0.00027461389
-0.003436264
3.0798544e-06
-1.0933891e-05
-0.080302492
0.00016561424
-0.00037668764
0.00054439804
-0.00019011154
-0.080476224
5.0178933e-05
-0.00019056714
0.00050423288
-0.00013045398
-0.0034886129
5.7012154e-07
-7.8768781e-06
-7.9887475e-05
-0.0030378219
1.1000487e-07
-6.6877852e-06
-3.674115e-05
-0.0026076776
-7.2739547e-07
-5.6772785e-06
-0.002107377
-2.1639791e-06
-4.7270162e-06
1.7946595e-05
-0.0021260622
-4.0345719e-06
4.7738468e-06
3.9289294e-05
-0.0026297851
-4.1093492e-06
4.8745848e-06
6.4091474e-05
-0.0030633152
-4.1943221e-06
4.8858621e-06
9.3084466e-05
-0.0035181396
-4.3160141e-06
4.8499271e-06
-0.080913858
-3.5061426e-05
1.5086428e-05
0.00055069478
-3.5852406e-05
-0.081403051
-4.2695304e-05
3.0759477e-05
0.00053698126
-2.491386e-05
-0.0035293167
-3.6119192e-06
3.8509556e-06
-1.5438898e-05
-0.0030731154
-3.3565398e-06
3.682236e-06