/*--------------------------------*- C++ -*----------------------------------*\
  =========                 |
  \\      /  F ield         | OpenFOAM: The Open Source CFD Toolbox
   \\    /   O peration     | Website:  https://openfoam.org
    \\  /    A nd           | Version:  7
     \\/     M anipulation  |
\*---------------------------------------------------------------------------*/
FoamFile
{
    version     2.0;
    format      ascii;
    class       volScalarField;
    location    "290";
    object      T;
}
// * * * * * * * * * * * * * * * * * * * * * * * * * * * * * * * * * * * * * //

dimensions      [0 0 0 1 0 0 0];

internalField   nonuniform List<scalar> 
25201
(
299.99729
299.99811
299.99733
299.99822
299.99989
299.99938
299.99831
299.99792
299.9995
300.00119
299.99948
299.99933
299.9997
299.98887
299.98817
299.99602
299.9942
299.9925
299.9905
299.98763
299.98952
299.99134
299.99235
299.99034
299.98859
299.98711
299.98918
299.99325
299.99273
299.98841
299.98862
299.98895
299.98704
299.98703
299.98717
299.98866
299.99076
299.99034
299.98834
299.98819
299.99011
299.98999
299.98835
299.98709
299.98814
299.98884
299.99135
299.9958
299.99999
299.99983
300.00068
300.00138
299.99976
300.00016
300.00071
299.99975
299.99815
299.99694
299.99887
299.99517
299.99504
299.99551
299.99741
299.999
300.00008
300.00134
300.00109
299.99833
299.99679
299.9949
299.99334
299.99346
299.9962
299.99833
299.99794
299.99238
299.99258
299.99293
299.99178
299.99225
299.99283
299.9938
299.99173
299.99291
299.99178
299.99413
299.99059
299.98927
299.98787
299.98865
299.98837
299.98836
299.98807
299.98764
299.98716
299.98729
299.98641
299.98639
299.98648
299.98633
299.98702
299.98705
299.98732
299.98746
299.98778
299.98752
299.98715
299.9873
299.98739
299.98652
299.98639
299.98696
299.98723
299.98686
299.98759
299.98688
299.98723
299.98773
299.98752
299.9873
299.98721
299.98727
299.98705
299.9871
299.98722
299.98697
299.98684
299.98729
299.98843
299.98775
299.98755
299.98748
299.98859
299.98871
299.98899
299.98956
299.99036
299.99154
299.99541
299.99802
299.9997
299.99738
299.99514
299.99491
299.99672
299.99879
300.00015
300.00069
300.00064
300.00135
300.00009
299.999
299.99681
299.99838
300.00111
300.00092
300.00134
299.99979
299.99592
299.99825
299.99334
299.99329
299.99397
299.99254
299.99358
299.99191
299.99141
299.99275
299.99006
299.99068
299.99166
299.99282
299.99062
299.992
299.99385
299.99124
299.99068
299.98982
299.9879
299.98801
299.98612
299.98712
299.98727
299.98694
299.98665
299.98599
299.98643
299.98679
299.98653
299.98633
299.98645
299.98642
299.98783
299.98969
299.98819
299.98809
299.98751
299.98732
299.98711
299.98699
299.98717
299.98755
299.98725
299.98775
299.98722
299.98697
299.98702
299.98694
299.98713
299.98693
299.98695
299.98712
299.9869
299.98733
299.9875
299.98656
299.99822
299.99731
299.99762
299.99327
299.99274
299.98836
299.9871
299.98868
299.98845
299.99011
299.98999
299.98814
299.9871
299.98707
299.98819
299.98834
299.99035
299.99077
299.98903
299.98726
299.98867
299.98928
299.99135
299.99421
300.05521
300.06038
300.06028
300.05742
300.03128
299.98921
299.98107
299.97886
299.97589
299.97203
299.97544
299.97612
299.97709
299.97815
299.98373
299.97286
299.96759
299.96674
299.96611
299.96555
299.96269
299.96262
299.96282
299.96333
299.96696
299.96163
299.95873
299.95835
299.95836
299.95877
299.95671
299.95595
299.95574
299.95599
299.95815
299.95566
299.95393
299.95377
299.95414
299.95521
299.95466
299.95332
299.95279
299.95287
299.9542
299.95353
299.95257
299.95256
299.95321
299.95482
299.95568
299.95374
299.95288
299.95281
299.95358
299.95423
299.95393
299.95408
299.95507
299.95728
299.95941
299.95693
299.95578
299.95554
299.95546
299.95717
299.9577
299.95803
299.95934
299.9621
299.96526
299.96224
299.96076
299.96032
299.95934
299.96192
299.96342
299.96396
299.96561
299.96892
299.97296
299.96939
299.96757
299.96691
299.96487
299.96817
299.97081
299.97159
299.97359
299.97745
299.98228
299.97815
299.97597
299.97506
299.9718
299.97572
299.97967
299.98071
299.98309
299.98751
299.99301
299.98832
299.98576
299.98458
299.97993
299.98439
299.98979
299.99113
299.99388
299.99886
300.00496
299.99972
299.99677
299.99528
299.98909
299.994
300.00103
300.00268
300.00584
300.01137
300.01799
300.01219
300.00883
300.00701
299.9991
300.00439
300.01323
300.01524
300.01882
300.02492
300.03205
300.02567
300.02188
300.01968
300.00986
300.01547
300.02632
300.02872
300.03274
300.03943
300.04694
300.03994
300.03569
300.03311
300.02122
300.02721
300.04015
300.04295
300.04745
300.05482
300.06316
300.05542
300.05067
300.04765
300.03349
300.03975
300.05512
300.0584
300.06341
300.07138
300.03928
300.06003
300.06375
300.06929
300.07782
300.06913
300.06087
300.05561
300.05216
300.03299
300.02677
300.04428
300.04747
300.05243
300.06032
300.05198
300.04452
300.03986
300.03694
300.02083
300.01513
300.02997
300.0327
300.03714
300.04428
300.03663
300.02982
300.02565
300.02314
300.00954
300.00408
300.01647
300.0188
300.02277
300.02931
300.02212
300.0159
300.01218
300.01005
299.9988
299.9937
300.00387
300.00583
300.00936
300.01532
300.00863
300.00298
299.99969
299.99792
299.9888
299.98411
299.9922
299.99382
299.99692
300.00229
299.99615
299.9911
299.98823
299.9868
299.97967
299.9755
299.98168
299.98298
299.98566
299.99044
299.98494
299.98048
299.97802
299.97689
299.97159
299.96798
299.97243
299.97343
299.97571
299.97989
299.97515
299.97128
299.96922
299.96837
299.9647
299.96173
299.96468
299.96542
299.96731
299.9709
299.96702
299.96373
299.96204
299.96144
299.95915
299.95698
299.95864
299.95914
299.96067
299.96368
299.96077
299.95807
299.95673
299.95634
299.95526
299.95404
299.95457
299.95487
299.95605
299.95848
299.95673
299.95459
299.95359
299.95339
299.95334
299.95325
299.95283
299.95295
299.95379
299.95565
299.95525
299.95369
299.95301
299.95298
299.95382
299.95515
299.95381
299.95376
299.95429
299.95556
299.95673
299.95577
299.95541
299.95554
299.95742
299.96061
299.95785
299.95761
299.9578
299.95845
299.96144
299.96118
299.96122
299.96161
299.96534
299.9708
299.96566
299.96504
299.96473
299.96468
299.96939
299.97059
299.97158
299.97263
299.97946
299.98612
299.98245
299.98155
299.98024
299.97881
299.95018
299.95247
299.95736
299.96292
300.00228
299.98014
299.93573
299.92884
299.9234
299.91514
299.98393
299.98881
299.99407
299.99931
300.03292
300.00606
300.00214
300.00097
299.99922
299.99691
299.98161
299.98333
299.98451
299.98563
299.99218
299.97927
299.97425
299.97358
299.97315
299.97278
299.96703
299.96698
299.96711
299.96754
299.97125
299.96484
299.96209
299.96182
299.96194
299.96246
299.95969
299.95883
299.95851
299.95866
299.96055
299.95751
299.95619
299.95614
299.95663
299.95783
299.95701
299.95551
299.95485
299.95482
299.95564
299.95467
299.9543
299.95441
299.95524
299.95705
299.95785
299.95575
299.95476
299.95456
299.95447
299.95493
299.95552
299.95582
299.95699
299.95938
299.9615
299.95883
299.95749
299.9571
299.95599
299.95757
299.95926
299.95976
299.96127
299.96424
299.96745
299.96421
299.96252
299.96192
299.95962
299.96209
299.96506
299.96579
299.96765
299.9712
299.97534
299.97152
299.96947
299.96862
299.96495
299.96817
299.97261
299.97359
299.97584
299.97996
299.98491
299.98051
299.97807
299.97696
299.97172
299.97557
299.98167
299.98294
299.98558
299.99028
299.99595
299.99096
299.98812
299.9867
299.97971
299.98411
299.99207
299.99365
299.99671
300.002
300.00827
300.00271
299.99945
299.99771
299.98876
299.99361
300.00358
300.0055
300.00897
300.01482
300.02156
300.01543
300.01175
300.00966
299.99865
300.00387
300.01601
300.0183
300.02219
300.02862
300.0359
300.02919
300.02506
300.02259
300.00927
300.0148
300.02936
300.03205
300.03641
300.04344
300.0511
300.04374
300.03913
300.03625
300.02044
300.02633
300.04354
300.04666
300.05154
300.05931
300.0681
300.05994
300.05476
300.05137
300.03252
300.03877
300.05923
300.0629
300.06839
300.07687
300.08537
300.0766
300.07087
300.06697
300.04493
300.08011
300.07185
300.06658
300.06306
300.04579
300.03955
300.0555
300.05879
300.06383
300.07181
300.06334
300.05566
300.0509
300.04788
300.03329
300.02709
300.04037
300.04317
300.04769
300.05507
300.04707
300.04006
300.03582
300.03326
300.02115
300.01545
300.02652
300.02891
300.03295
300.03967
300.03232
300.02591
300.02211
300.01993
300.00987
300.00443
300.0135
300.01551
300.01912
300.02528
300.01836
300.01251
300.00913
300.00732
299.99917
299.99407
300.00134
300.00301
300.00621
300.01181
300.00538
300.00007
299.9971
299.99561
299.98917
299.98448
299.99009
299.99145
299.99425
299.9993
299.99338
299.98864
299.98606
299.98487
299.98003
299.97585
299.97995
299.98101
299.98342
299.98791
299.98267
299.97848
299.97628
299.97538
299.97196
299.96836
299.97113
299.97193
299.97397
299.97789
299.97341
299.96978
299.96794
299.96728
299.9651
299.96221
299.96381
299.96437
299.96606
299.96943
299.9658
299.96272
299.96123
299.96079
299.9597
299.95763
299.95822
299.95858
299.95992
299.96274
299.96012
299.95759
299.95643
299.95618
299.95601
299.95494
299.95467
299.95483
299.95586
299.95812
299.95668
299.95471
299.95384
299.95377
299.95447
299.95466
299.95372
299.95373
299.95439
299.95605
299.95614
299.95476
299.95422
299.95429
299.95564
299.95754
299.95578
299.95562
299.956
299.95708
299.95911
299.95838
299.95818
299.95843
299.96065
299.9651
299.96214
299.96176
299.96176
299.96213
299.96726
299.96739
299.96763
299.96815
299.97184
299.98076
299.9762
299.97548
299.97494
299.97428
299.98876
299.9906
299.99146
299.99218
299.9956
300.01504
300.01652
300.01642
300.01586
300.01396
300.0418
300.04581
300.04801
300.04929
300.05022
300.05873
300.1204
300.12784
300.1304
300.12632
299.98089
299.98582
299.98819
299.98989
299.99566
299.98812
299.98327
299.98243
299.98187
299.98228
299.96808
299.96875
299.96941
299.97026
299.97543
299.96888
299.96528
299.96478
299.96457
299.96461
299.96007
299.95969
299.9597
299.96008
299.96301
299.95919
299.95702
299.95678
299.95699
299.95774
299.95598
299.95492
299.95455
299.95471
299.95645
299.95482
299.95348
299.9534
299.95394
299.9553
299.95531
299.9537
299.95306
299.95307
299.95401
299.95395
299.95319
299.95326
299.95413
299.95608
299.95756
299.95535
299.95436
299.95421
299.95452
299.95568
299.95576
299.95601
299.95716
299.95964
299.96223
299.95948
299.95817
299.95784
299.95734
299.95946
299.96042
299.96086
299.96233
299.96537
299.96891
299.96562
299.96398
299.96345
299.96199
299.96491
299.9669
299.96755
299.96936
299.97294
299.97732
299.97348
299.9715
299.97073
299.96817
299.97176
299.97494
299.97583
299.978
299.98212
299.98723
299.98285
299.9805
299.97948
299.97565
299.97982
299.98435
299.98552
299.98805
299.99272
299.99848
299.99355
299.99082
299.98951
299.98425
299.98891
299.99496
299.99643
299.99935
300.00458
300.0109
300.00541
300.00229
300.00066
299.99379
299.99887
300.0066
300.0084
300.01173
300.01751
300.02432
300.01827
300.01474
300.01277
300.00413
300.00955
300.01915
300.02131
300.02506
300.0314
300.03867
300.03204
300.02807
300.02573
300.01513
300.02084
300.03249
300.03505
300.03925
300.04619
300.05394
300.04669
300.04224
300.03948
300.02673
300.03282
300.04673
300.04973
300.05443
300.06204
300.07028
300.06232
300.05738
300.05417
300.03904
300.0453
300.06166
300.06512
300.07033
300.07856
300.08043
300.07215
300.06686
300.06332
300.046
300.03972
300.05574
300.05904
300.0641
300.07211
300.0636
300.05589
300.05112
300.04808
300.03342
300.0272
300.04053
300.04334
300.04788
300.05528
300.04723
300.0402
300.03595
300.03339
300.02124
300.01553
300.02664
300.02903
300.03308
300.0398
300.03243
300.02602
300.02222
300.02004
300.00995
300.0045
300.01362
300.01563
300.01924
300.0254
300.01848
300.01263
300.00925
300.00742
299.99922
299.99413
300.00147
300.00315
300.00635
300.01195
300.00553
300.00022
299.99724
299.99573
299.98923
299.98453
299.99023
299.99159
299.99441
299.99946
299.99355
299.98879
299.9862
299.985
299.98007
299.97588
299.98007
299.98114
299.98357
299.98807
299.98282
299.97862
299.9764
299.97548
299.97197
299.96836
299.97122
299.97203
299.97408
299.97802
299.97351
299.96987
299.96801
299.96734
299.96509
299.96218
299.96385
299.96442
299.96612
299.9695
299.96585
299.96276
299.96126
299.96081
299.95966
299.95757
299.95822
299.95858
299.95993
299.96276
299.96011
299.95758
299.9564
299.95615
299.95594
299.95486
299.95462
299.95479
299.95582
299.95808
299.95661
299.95463
299.95375
299.95368
299.95437
299.95455
299.95366
299.95366
299.95432
299.95596
299.95604
299.95466
299.95411
299.95419
299.95552
299.9574
299.95566
299.9555
299.95589
299.95697
299.959
299.95826
299.95805
299.95829
299.96048
299.9649
299.96198
299.96161
299.96162
299.962
299.96718
299.96728
299.96751
299.96801
299.97162
299.98048
299.97595
299.97524
299.97471
299.97408
299.98906
299.99083
299.99166
299.99235
299.99566
300.01455
300.01587
300.01572
300.01509
300.01296
300.05061
300.05477
300.05674
300.05756
300.05616
300.05538
300.05455
300.05344
300.05066
300.04696
299.99423
299.99801
299.99989
300.00116
300.0055
299.99226
299.98703
299.98613
299.98523
299.9839
299.97182
299.9723
299.97276
299.97343
299.97843
299.97054
299.96698
299.96657
299.96647
299.96655
299.96186
299.96134
299.96121
299.96148
299.96421
299.96004
299.95818
299.95804
299.95837
299.95924
299.95742
299.95622
299.95572
299.95578
299.9571
299.95531
299.9545
299.95453
299.95519
299.9567
299.95676
299.95496
299.95413
299.95402
299.9544
299.95425
299.95434
299.95454
299.95554
299.95764
299.95918
299.95679
299.95563
299.95533
299.95475
299.95584
299.95696
299.95736
299.9587
299.96138
299.96412
299.96116
299.95965
299.95915
299.95747
299.95954
299.96185
299.96246
299.96415
299.96741
299.97115
299.96762
299.96575
299.96502
299.96205
299.96494
299.96863
299.96948
299.97154
299.97538
299.97999
299.97587
299.97362
299.97264
299.96819
299.97176
299.97703
299.97816
299.98061
299.98503
299.9904
299.9857
299.98305
299.98178
299.97564
299.9798
299.98686
299.98829
299.99114
299.99615
300.0022
299.99691
299.99384
299.99226
299.98423
299.9889
299.99794
299.99971
300.00299
300.00858
300.01515
300.00928
300.00579
300.00385
299.99376
299.99882
300.01
300.01212
300.01583
300.02201
300.0291
300.02263
300.0187
300.01639
300.00407
300.0095
300.02304
300.02556
300.02972
300.03649
300.04404
300.03698
300.03257
300.02986
300.01507
300.02075
300.03681
300.03974
300.04439
300.05182
300.06006
300.05224
300.04731
300.04416
300.0267
300.03297
300.05204
300.05549
300.06073
300.06896
300.07775
300.06918
300.06367
300.05999
300.03929
300.04552
300.06772
300.07167
300.07746
300.08632
300.04594
300.06254
300.06603
300.07128
300.07954
300.07133
300.06335
300.05835
300.05509
300.03966
300.03336
300.04756
300.05061
300.0554
300.0631
300.05471
300.04737
300.04288
300.0401
300.02713
300.0212
300.03304
300.03564
300.03991
300.04694
300.03937
300.03267
300.02866
300.02628
300.01547
300.00988
300.01964
300.02184
300.02565
300.03209
300.0249
300.01877
300.0152
300.01322
300.00444
299.99917
300.00698
300.00881
300.01219
300.01805
300.01136
300.00581
300.00266
300.00103
299.99408
299.98918
299.99527
299.99676
299.99973
300.00503
299.99884
299.99385
299.99111
299.9898
299.98448
299.98002
299.98457
299.98575
299.98832
299.99306
299.98749
299.98306
299.9807
299.97968
299.97582
299.9719
299.97507
299.97598
299.97818
299.98235
299.97747
299.97359
299.97161
299.97085
299.96829
299.96501
299.96695
299.96761
299.96944
299.97306
299.96897
299.96565
299.96401
299.96349
299.96208
299.95952
299.96041
299.96084
299.96233
299.96539
299.96221
299.95944
299.95814
299.95782
299.95739
299.95571
299.95569
299.95593
299.95709
299.9596
299.95746
299.95524
299.95426
299.95412
299.95452
299.95393
299.95311
299.95317
299.95402
299.95597
299.95512
299.95349
299.95283
299.95286
299.95397
299.95475
299.95327
299.95318
299.9537
299.95507
299.95572
299.95466
299.95431
299.95448
299.95635
299.95907
299.95674
299.95649
299.95668
299.95743
299.95976
299.95939
299.95941
299.9598
299.96291
299.96881
299.96498
299.96445
299.96423
299.96426
299.96797
299.96868
299.96935
299.97021
299.97559
299.98851
299.98334
299.98248
299.98178
299.98167
299.98055
299.9862
299.98892
299.99079
299.99729
300.05991
300.11666
300.12358
300.12592
300.12244
300.06992
300.07486
300.07462
300.07148
300.04397
299.99901
299.99093
299.98896
299.9863
299.98197
299.98284
299.9829
299.98363
299.98459
299.99008
299.97723
299.97174
299.97086
299.97016
299.96942
299.9655
299.96551
299.96575
299.96628
299.97009
299.96392
299.96085
299.96046
299.96045
299.96082
299.95827
299.95754
299.95734
299.9576
299.95986
299.95697
299.95515
299.95499
299.95535
299.95641
299.95561
299.95426
299.95373
299.95382
299.95522
299.95434
299.95329
299.95328
299.95395
299.95559
299.95632
299.95439
299.95355
299.95348
299.95422
299.95475
299.95439
299.95455
299.95554
299.95777
299.9598
299.95732
299.95617
299.95593
299.95588
299.95751
299.95797
299.95831
299.95963
299.96239
299.96547
299.96245
299.96097
299.96054
299.95961
299.96212
299.96354
299.96409
299.96573
299.96904
299.97301
299.96945
299.96764
299.96699
299.96502
299.96827
299.9708
299.97157
299.97356
299.97741
299.98216
299.97806
299.9759
299.97501
299.97185
299.97573
299.97953
299.98055
299.9829
299.98729
299.99272
299.98808
299.98555
299.98439
299.9799
299.98432
299.98953
299.99084
299.99357
299.9985
300.00454
299.99935
299.99644
299.99499
299.98899
299.99386
300.00064
300.00227
300.00538
300.01085
300.01738
300.01165
300.00834
300.00657
299.99892
300.00417
300.01269
300.01465
300.01817
300.0242
300.03123
300.02493
300.0212
300.01907
300.00958
300.01513
300.02561
300.02794
300.03189
300.0385
300.04593
300.03903
300.03485
300.03233
300.02081
300.02669
300.03929
300.04202
300.04644
300.0537
300.06196
300.05436
300.04967
300.0467
300.03283
300.03902
300.05413
300.05735
300.06232
300.07021
300.07838
300.07021
300.06503
300.0616
300.04526
299.99602
299.99621
299.996
299.99617
299.99969
299.99821
299.99685
299.99555
299.99626
299.99822
300.00094
299.99876
299.99625
299.99758
300.00068
300.00138
300.00154
300.00117
300.00186
300.00137
300.00208
300.00176
299.99994
299.99878
300.00186
300.00095
299.99904
300.0026
300.00184
300.00113
299.99956
300.00186
300.00215
300.00252
300.00309
300.00398
300.00215
300.0029
300.00314
300.00285
300.00253
300.00078
300.00065
299.9983
300.00198
300.00082
299.99952
299.99976
299.99499
299.99676
299.99601
299.99411
299.99248
299.99241
299.99547
299.99789
299.99792
299.99978
299.99808
299.99723
299.99927
299.99967
300.00883
300.00442
300.00307
300.00143
300.00039
299.99033
299.99132
299.9916
299.99164
299.99072
299.98079
299.97748
299.97685
299.97621
299.97494
299.96491
299.96525
299.96566
299.96632
299.97078
299.96493
299.9614
299.96093
299.96077
299.96085
299.95741
299.95692
299.95687
299.95721
299.96006
299.95689
299.95479
299.95457
299.95481
299.95563
299.95439
299.95327
299.95285
299.95299
299.95465
299.95337
299.95216
299.95211
299.95266
299.95406
299.95434
299.95266
299.95196
299.95195
299.95283
299.95299
299.9524
299.9525
299.95338
299.95537
299.95702
299.95478
299.95375
299.95357
299.95372
299.95501
299.95528
299.95555
299.95673
299.95926
299.96198
299.95918
299.95784
299.95747
299.95677
299.95896
299.96018
299.96064
299.96215
299.96523
299.96889
299.96555
299.96386
299.96329
299.96157
299.96455
299.96685
299.96754
299.9694
299.97303
299.97752
299.97362
299.97158
299.97077
299.96787
299.97152
299.97508
299.97602
299.97824
299.98242
299.98763
299.98318
299.98077
299.9797
299.97546
299.97969
299.98466
299.98588
299.98848
299.99322
299.99906
299.99406
299.99126
299.9899
299.98417
299.98889
299.99544
299.99696
299.99995
300.00525
300.01165
300.00609
300.0029
300.00122
299.99384
299.99898
300.00726
300.00911
300.01251
300.01836
300.02527
300.01914
300.01553
300.01351
300.00431
300.0098
300.02
300.02221
300.02603
300.03246
300.03982
300.03311
300.02906
300.02666
300.01545
300.02124
300.03354
300.03616
300.04044
300.04746
300.05529
300.04795
300.04343
300.04061
300.02718
300.03328
300.0479
300.05095
300.05573
300.06343
300.07174
300.06368
300.05866
300.05538
300.0395
300.04576
300.06299
300.06653
300.07184
300.08019
300.07221
300.06423
300.05919
300.05589
300.03987
300.03358
300.04833
300.0514
300.0562
300.06389
300.05557
300.04819
300.04366
300.04085
300.02737
300.02136
300.03366
300.03628
300.04058
300.04765
300.04007
300.03333
300.02927
300.02686
300.01558
300.00993
300.02018
300.02241
300.02628
300.03276
300.02551
300.01933
300.0157
300.01368
300.0044
299.99904
300.00737
300.00925
300.01268
300.0186
300.01182
300.00621
300.00301
300.00133
299.99389
299.98892
299.99548
299.99702
300.00005
300.0054
299.99915
299.9941
299.9913
299.98995
299.98421
299.97976
299.98468
299.98591
299.98853
299.99331
299.98765
299.98318
299.98078
299.97972
299.97555
299.97158
299.97504
299.97597
299.9782
299.98242
299.97744
299.97353
299.97151
299.97073
299.96792
299.96458
299.96676
299.96744
299.9693
299.97295
299.96876
299.96541
299.96374
299.9632
299.96156
299.95893
299.96003
299.96049
299.962
299.96509
299.96179
299.95899
299.95766
299.95732
299.95672
299.95494
299.95508
299.95533
299.95651
299.95905
299.95677
299.95452
299.95351
299.95336
299.95363
299.95285
299.95217
299.95226
299.95312
299.95511
299.954
299.95231
299.95162
299.95162
299.95264
299.9531
299.95174
299.95167
299.95221
299.95362
299.95383
299.95271
299.95232
299.95248
299.95425
299.95631
299.95406
299.95382
299.95406
299.95489
299.9564
299.95589
299.95585
299.95621
299.95921
299.96358
299.95976
299.95925
299.95907
299.95919
299.96249
299.96275
299.96319
299.96389
299.96874
299.97703
299.97229
299.97144
299.97061
299.96941
299.98378
299.98487
299.98526
299.98527
299.98523
299.99709
299.9873
299.98492
299.98265
299.98158
299.95739
299.96713
299.97523
299.98161
300.00193
299.96339
299.88985
299.87073
299.85573
299.84865
300.10997
300.11321
300.11015
300.10233
300.04004
299.98073
299.97517
299.97308
299.9703
299.96568
299.97259
299.97242
299.97277
299.9732
299.97712
299.96701
299.9621
299.96136
299.96089
299.96052
299.9585
299.95829
299.95842
299.95889
299.96242
299.95796
299.9551
299.95475
299.95481
299.95533
299.95401
299.95315
299.9529
299.95311
299.95521
299.95328
299.95161
299.95147
299.95189
299.95304
299.9529
299.95151
299.95098
299.95103
299.95227
299.95195
299.95095
299.95096
299.95168
299.95337
299.95451
299.95254
299.95168
299.9516
299.95225
299.95312
299.95286
299.95303
299.95404
299.95628
299.95853
299.95603
299.95487
299.95462
299.9545
299.95634
299.95688
299.95723
299.95855
299.96132
299.96454
299.96151
299.96003
299.95959
299.95859
299.96123
299.96274
299.96329
299.96493
299.96824
299.97231
299.96875
299.96693
299.96627
299.96424
299.96759
299.97021
299.97098
299.97297
299.97682
299.98165
299.97754
299.97537
299.97447
299.97124
299.97518
299.97908
299.98011
299.98247
299.98687
299.99236
299.9877
299.98516
299.98399
299.9794
299.98387
299.98921
299.99053
299.99326
299.99821
300.0043
299.99908
299.99615
299.99468
299.98857
299.99349
300.00043
300.00206
300.00519
300.0107
300.01732
300.01154
300.0082
300.0064
299.9986
300.00389
300.01261
300.0146
300.01815
300.02423
300.03134
300.02498
300.0212
300.01904
300.00935
300.01497
300.02568
300.02804
300.03204
300.03873
300.04628
300.03929
300.03506
300.03249
300.02074
300.02668
300.03952
300.0423
300.04677
300.05409
300.06205
300.05444
300.04973
300.04674
300.03278
300.039
300.0541
300.05734
300.06231
300.07021
300.07846
300.07035
300.06519
300.06174
300.04531
300.07171
300.06377
300.05877
300.0555
300.03963
300.0334
300.04806
300.05111
300.05589
300.06352
300.05544
300.0481
300.04358
300.04076
300.02725
300.02127
300.03365
300.03629
300.0406
300.04768
300.04003
300.03327
300.0292
300.02678
300.01545
300.00977
300.02006
300.02231
300.02618
300.03268
300.02541
300.01922
300.01559
300.01355
300.00424
299.99889
300.00724
300.00912
300.01256
300.01849
300.01158
300.00595
300.00276
300.00109
299.99371
299.98872
299.99518
299.99668
299.99968
300.00501
299.99883
299.99382
299.99105
299.98971
299.98405
299.97966
299.9846
299.98582
299.98843
299.99317
299.98766
299.98318
299.98077
299.9797
299.97547
299.97147
299.97494
299.97588
299.97813
299.98236
299.97734
299.97341
299.97138
299.97059
299.96777
299.9644
299.9666
299.96728
299.96915
299.97281
299.96859
299.96524
299.96357
299.96302
299.96138
299.95874
299.95984
299.9603
299.96181
299.9649
299.96158
299.95878
299.95745
299.95711
299.95651
299.9547
299.95486
299.95511
299.9563
299.95883
299.95653
299.95428
299.95327
299.95311
299.95335
299.95251
299.95187
299.95196
299.95283
299.95483
299.95367
299.95197
299.95127
299.95127
299.95223
299.9526
299.95136
299.9513
299.95185
299.95326
299.9534
299.95225
299.95183
299.95197
299.95364
299.95553
299.95342
299.95321
299.95348
299.95434
299.95571
299.95515
299.95507
299.9554
299.95823
299.96232
299.95871
299.95825
299.95812
299.9583
299.96127
299.96144
299.96182
299.96249
299.96712
299.97499
299.97073
299.96998
299.96929
299.96825
299.98035
299.98104
299.98143
299.98169
299.98257
299.99523
299.98628
299.98422
299.98197
299.9806
299.96197
299.97029
299.97802
299.98353
299.99697
299.96467
299.90634
299.89679
299.88979
299.88195
299.87226
299.87266
299.87729
299.8864
299.95886
299.96253
299.92476
299.92014
299.91751
299.91915
300.01372
300.01603
300.01761
300.01852
300.02001
299.99358
299.99379
299.9936
299.99315
299.9919
299.97695
299.97825
299.97897
299.97966
299.98333
299.97246
299.96774
299.96704
299.96659
299.96623
299.96192
299.96186
299.96204
299.96254
299.96624
299.96107
299.95809
299.95773
299.95777
299.95824
299.95624
299.95545
299.95523
299.95546
299.95768
299.95528
299.95353
299.95337
299.95376
299.95487
299.95441
299.95302
299.95248
299.95255
299.95389
299.95326
299.95228
299.95228
299.95298
299.95466
299.95561
299.95365
299.95279
299.9527
299.95334
299.95402
299.9538
299.95397
299.95499
299.95724
299.95941
299.9569
299.95572
299.95546
299.95525
299.95698
299.95764
299.958
299.95935
299.96215
299.96536
299.96229
299.96077
299.96031
299.95915
299.96173
299.96343
299.964
299.96569
299.96905
299.97312
299.96951
299.96765
299.96696
299.9647
299.96801
299.97088
299.97169
299.97373
299.97764
299.98248
299.97831
299.97609
299.97516
299.97164
299.97557
299.97978
299.98085
299.98325
299.98771
299.99322
299.98851
299.98591
299.98471
299.97978
299.98424
299.98993
299.99129
299.99408
299.99909
300.00519
299.99993
299.99695
299.99544
299.98895
299.99388
300.00119
300.00287
300.00605
300.0116
300.01823
300.01241
300.00903
300.0072
299.99901
300.00432
300.01341
300.01543
300.01902
300.02514
300.03226
300.02587
300.02206
300.01987
300.00979
300.01543
300.02653
300.02892
300.03295
300.03965
300.04724
300.04024
300.03598
300.03339
300.0212
300.02713
300.04046
300.04327
300.04778
300.05512
300.06323
300.05556
300.0508
300.04777
300.03322
300.03942
300.05525
300.05854
300.06359
300.07161
300.08007
300.07174
300.06645
300.06292
300.04569
300.04475
300.067
300.07095
300.07673
300.0856
300.07683
300.06829
300.0628
300.05913
300.03854
300.03243
300.05139
300.05481
300.06004
300.06822
300.05973
300.05193
300.04701
300.04386
300.02641
300.02056
300.03657
300.0395
300.04418
300.05165
300.04373
300.03661
300.03222
300.02953
300.01486
300.00929
300.02267
300.02517
300.02935
300.03618
300.02875
300.02226
300.01834
300.01606
300.00387
299.9986
300.00965
300.01176
300.01548
300.0217
300.01479
300.00889
300.00542
300.00351
299.99354
299.98868
299.99759
299.99934
300.00263
300.00825
300.00188
299.99657
299.99353
299.99196
299.98404
299.97963
299.98659
299.98801
299.99088
299.99592
299.99017
299.98544
299.9828
299.98155
299.97548
299.97159
299.97681
299.97793
299.9804
299.98486
299.97981
299.97566
299.97341
299.97244
299.96801
299.96476
299.96841
299.96927
299.97135
299.97523
299.97098
299.9674
299.96553
299.96481
299.96183
299.9593
299.9616
299.96222
299.96394
299.96724
299.9639
299.96089
299.95938
299.95888
299.95718
299.95553
299.95664
299.95704
299.9584
299.96113
299.95885
299.95642
299.95525
299.95495
299.95438
299.95378
299.95385
299.95406
299.95508
299.95724
299.95622
299.95437
299.95353
299.95341
299.9538
299.95455
299.95371
299.95375
299.95444
299.956
299.95647
299.95522
299.9547
299.95475
299.95608
299.95867
299.95678
299.95665
299.957
299.95794
299.95999
299.95939
299.95923
299.95949
299.96227
299.96775
299.96412
299.96373
299.96368
299.9639
299.96754
299.96785
299.96824
299.96889
299.97406
299.98544
299.98015
299.97932
299.97857
299.97763
299.9825
299.98511
299.9868
299.98813
299.99394
300.03678
300.03932
300.03883
300.03655
300.03293
299.9976
299.96536
299.96015
299.95598
299.94915
299.94598
299.95113
299.95671
299.96247
300.00046
299.98495
299.98299
299.98234
299.9814
299.98055
299.96872
299.96993
299.97085
299.97182
299.97778
299.96909
299.96438
299.96381
299.96355
299.96357
299.96031
299.96002
299.96003
299.9604
299.96386
299.95931
299.95673
299.9565
299.9567
299.95739
299.95583
299.95485
299.95447
299.95459
299.95633
299.95423
299.95302
299.95299
299.95353
299.95481
299.95463
299.95306
299.95237
299.95232
299.95305
299.95259
299.95228
299.95241
299.95327
299.95512
299.95629
299.95415
299.95314
299.95292
299.95278
299.95354
299.95417
299.95448
299.95566
299.95809
299.96044
299.95774
299.95639
299.95599
299.95485
299.95661
299.95832
299.95883
299.96035
299.96334
299.9667
299.96344
299.96175
299.96114
299.95881
299.9614
299.96439
299.96512
299.967
299.97056
299.97481
299.97098
299.96891
299.96806
299.96436
299.96767
299.97212
299.97311
299.97537
299.9795
299.98453
299.98013
299.97768
299.97656
299.97129
299.97521
299.98132
299.9826
299.98525
299.98996
299.99568
299.9907
299.98785
299.98643
299.9794
299.98386
299.99182
299.99341
299.99646
300.00175
300.00807
300.00251
299.99925
299.9975
299.98854
299.99345
300.00343
300.00536
300.00884
300.01471
300.02157
300.01542
300.01173
300.00962
299.99855
300.00382
300.01604
300.01834
300.02227
300.02874
300.03612
300.02935
300.02519
300.0227
300.00927
300.01487
300.02957
300.03228
300.03668
300.04378
300.05165
300.04424
300.03958
300.03666
300.02061
300.0265
300.04395
300.04712
300.05203
300.0598
300.06819
300.06007
300.05488
300.05148
300.03253
300.03868
300.05919
300.06287
300.06836
300.07685
300.08565
300.07682
300.07105
300.06712