/*--------------------------------*- C++ -*----------------------------------*\
  =========                 |
  \\      /  F ield         | OpenFOAM: The Open Source CFD Toolbox
   \\    /   O peration     | Website:  https://openfoam.org
    \\  /    A nd           | Version:  7
     \\/     M anipulation  |
\*---------------------------------------------------------------------------*/
FoamFile
{
    version     2.0;
    format      ascii;
    class       volScalarField;
    location    "190";
    object      p;
}
// * * * * * * * * * * * * * * * * * * * * * * * * * * * * * * * * * * * * * //

dimensions      [1 -1 -2 0 0 0 0];

internalField   nonuniform List<scalar> 
25278
(
101315.58
101314.08
101315.66
101315.56
101318.63
101313.62
101314.56
101315.5
101314.9
101309.72
101311.6
101313.28
101314.11
101315.81
101323.18
101315.72
101314.2
101320.81
101324.49
101318.59
101313.69
101313.73
101314.1
101311.55
101306.8
101311.33
101313.89
101311.39
101318.26
101310.81
101307.79
101314.71
101308.22
101312.2
101305.14
101313.69
101308.7
101304.18
101308.5
101301.6
101304.41
101299.26
101301.3
101292.51
101299.25
101301.76
101309.49
101307.54
101300.73
101308.38
101308.41
101318.86
101313.92
101311.45
101313.38
101306.44
101305.03
101311.69
101303.5
101306.2
101301.11
101301.69
101303.07
101306.92
101315.91
101315.53
101306.82
101303.81
101308.28
101308.86
101326.04
101315.11
101316.57
101309.36
101315.85
101305.62
101305.02
101310.62
101313.38
101318.76
101322.74
101322.94
101320.55
101324.16
101318.8
101323.62
101325.44
101333.39
101330.56
101330.64
101324.91
101324.28
101330.87
101332.03
101333.37
101323.92
101330.8
101330.58
101322.61
101322.72
101331.19
101337.77
101335.56
101322.28
101325.01
101333.95
101326.08
101332.86
101331.29
101335.34
101336.23
101328.03
101341.42
101354.51
101338.41
101336.72
101359.57
101332.14
101340.55
101340.23
101323.73
101318.61
101318.52
101330.62
101331.8
101330.73
101334.82
101336.22
101325.2
101323.53
101322.68
101318.56
101320.26
101322.8
101330.6
101333.25
101325.37
101327.75
101340.71
101332.13
101337.53
101354.03
101358.91
101331.57
101324.38
101333.61
101330.61
101323.32
101333.03
101323.38
101322.82
101330.86
101324.6
101330.69
101320.23
101322.16
101321.45
101335.02
101336.06
101325.17
101341.93
101346.25
101326.33
101337.45
101325.54
101334.34
101341.07
101332.92
101359.09
101354.49
101339.07
101335.57
101344.36
101346.9
101410.89
101370.05
101343.51
101340.7
101370.18
101418.19
101346.99
101343.02
101333.56
101337.5
101337.47
101330.83
101321.8
101324.52
101335.52
101362.98
101355.87
101341.26
101324.21
101333.87
101333.13
101330.06
101350.07
101324.72
101425.39
101401.57
101322.24
101347.36
101329.39
101320.5
101319.78
101318.96
101312.15
101318.16
101314.03
101306.88
101313.53
101307.71
101304.19
101298.88
101308.57
101303.26
101307.56
101300.96
101300.75
101291.71
101292.5
101298.32
101305.49
101309.04
101305.39
101298.51
101294.87
101300.69
101300.74
101302.78
101301.61
101291.14
101287.65
101296.69
101298.27
101300.43
101299.86
101306.56
101313.03
101318.19
101307.68
101312.89
101310.82
101305.61
101300.42
101305.92
101303.62
101310.3
101302.32
101300.83
101301.8
101306.01
101307.12
101317.81
101312.53
101315.08
101307.72
101306.33
101313.92
101305.1
101302.3
101290.41
101290.47
101290.06
101290.89
101284.98
101297.41
101294.87
101298.16
101300.33
101298.43
101296.37
101298.37
101290.73
101291.2
101294.31
101297.98
101292.54
101286.83
101285.06
101285.94
101281.95
101292.75
101290.64
101287.91
101278.86
101281.56
101278.95
101275.52
101282.73
101284.32
101289.78
101298.73
101305.68
101305.76
101298.53
101302.95
101301.83
101297.76
101288.47
101291.67
101292.92
101296.43
101294.87
101291.35
101292.54
101300.73
101302.32
101299.5
101304.95
101296.61
101304.77
101298.82
101299.56
101300.08
101302.91
101296.6
101304.79
101315.62
101319.55
101304.91
101298.71
101308.84
101299.14
101299.44
101300.11
101313.71
101318.84
101326.23
101313.75
101298.12
101301
101289.03
101277.67
101296.58
101279.46
101296.01
101285.16
101284.7
101289.24
101289.47
101289.37
101284.29
101288.47
101287.1
101294.64
101285.9
101281.02
101288.1
101279.31
101280.14
101294.3
101284.6
101282.92
101282.17
101281.02
101278.4
101286.43
101272.73
101271.64
101279.13
101285.74
101279.38
101287.18
101283.04
101292.13
101289.67
101285.94
101296.33
101291.17
101281.04
101288.42
101279.26
101292.6
101300.73
101302.19
101285.08
101284.51
101288.95
101288.58
101288.31
101283.92
101288.21
101295.94
101294.78
101279.25
101279.61
101279.56
101285.86
101287.06
101280.98
101281.82
101282
101283.55
101294.3
101279.89
101280.67
101278.32
101286.58
101272.83
101271.89
101276.26
101274.15
101269.04
101264.13
101272.95
101280.97
101287.49
101277.94
101289.1
101279
101273.79
101276.87
101276.67
101281.5
101273.58
101282.84
101286.35
101281.5
101272.99
101275.58
101277.12
101272.53
101278.27
101273.58
101280.63
101278.15
101273.8
101272.82
101267.88
101271.52
101263.09
101275.14
101268.1
101266.3
101271.16
101267.91
101272.77
101273.81
101283.47
101274.41
101275.28
101279.43
101288.52
101288.18
101295.55
101297.95
101300.09
101315.75
101320.1
101309.82
101300.68
101302.5
101300.65
101314.1
101301.77
101325.78
101331.18
101325.93
101322.56
101302.08
101302.34
101304.47
101302.62
101295.61
101338.92
101359.22
101316.7
101324.55
101329.32
101324.03
101304.83
101303.61
101307.37
101309.83
101312.82
101355.19
101349.69
101312.38
101310.93
101314.13
101313.31
101316.68
101312.72
101303.24
101306.9
101292.65
101295.73
101290.14
101291.88
101287.37
101296.53
101292.36
101274.77
101277.86
101275.59
101281.77
101283.36
101275.11
101284.2
101277.81
101283.82
101281.31
101270.26
101274
101276.15
101281.08
101281.03
101281.94
101288.38
101285.92
101298.05
101300.97
101299.6
101296.45
101284.45
101291.24
101291.76
101298.42
101300.57
101301.25
101302.48
101300.81
101309.98
101301.88
101317.27
101307.63
101304.55
101306.05
101325.75
101314
101310.09
101314.64
101312.38
101303.67
101302.1
101331.98
101325.95
101325.73
101293.75
101322.77
101301.4
101300.63
101311.29
101338.92
101361.51
101355.64
101309.6
101305.4
101323.32
101286.91
101313.29
101288.69
101303.08
101291.15
101302.49
101292.32
101301.22
101300.08
101298.49
101299.58
101301.83
101295.17
101298.36
101295.61
101292.34
101286.07
101287.43
101293.25
101287.13
101283.51
101293.82
101291.49
101289.65
101292.72
101280.69
101280.43
101282.75
101279.14
101276.56
101282.68
101284.54
101287.84
101278.01
101289.2
101282.81
101277.25
101279.44
101273.95
101277.32
101273.99
101277.82
101272.96
101281.03
101273.39
101273.39
101282.23
101286.64
101284.52
101274.91
101276.34
101278.1
101273.31
101278.42
101275.46
101263.05
101271.57
101280.57
101273.13
101267.93
101268.99
101263.91
101270.73
101269.79
101269.97
101263.04
101273.46
101262.18
101264.47
101256.91
101252.76
101264.02
101263.83
101274.51
101281.43
101275.13
101282.83
101276.41
101282.46
101276.73
101283.33
101268.46
101276.52
101259.52
101265.39
101268.18
101274.81
101273.89
101275.63
101283.62
101286.42
101288.06
101295.75
101288.76
101291.09
101284.78
101289.41
101291.62
101290.28
101285.64
101288.71
101280.46
101281.58
101282.48
101288.7
101279.66
101278.35
101277.11
101286.34
101286.85
101294.5
101298.67
101293.64
101289.44
101288.72
101288.01
101289.4
101285.06
101292.17
101293.71
101285.12
101285.17
101284.53
101283.1
101284.93
101279.66
101286.64
101292.14
101280.91
101280.14
101289.64
101273.63
101285.97
101277.51
101278.69
101262.89
101270.67
101273.56
101278.88
101274.64
101276.88
101271.58
101269.44
101266.64
101272.81
101278.76
101280.47
101279.35
101282
101281.36
101276.05
101271.25
101277.44
101271.28
101272.96
101269.24
101277.91
101296.01
101286.69
101278.53
101288.76
101299.88
101291
101301.45
101291.97
101301.25
101296.87
101296.65
101283.66
101283.74
101278.82
101289.26
101291.39
101291.3
101288.98
101278.2
101277.71
101278.6
101266.7
101266.85
101270.2
101270.44
101274.26
101283.85
101279.79
101273.56
101273.91
101275.59
101274.91
101272.79
101271.4
101273.52
101275.19
101282.37
101281.38
101272.92
101269.94
101279.37
101278.16
101267.54
101266.36
101268.66
101270.34
101280.78
101276.26
101271.75
101277.19
101268.3
101270.54
101272.16
101266.99
101269.43
101272
101270.52
101267.34
101260.05
101264.1
101266.12
101263.13
101259.5
101255.23
101264.01
101260.95
101264.65
101256.5
101264.84
101261.95
101269.65
101275.13
101284.47
101286.39
101294.02
101291.47
101298.85
101288.04
101289.8
101288.86
101279.82
101279.55
101284.02
101281.6
101274.85
101274.42
101283.19
101286.32
101293.74
101293.21
101302.17
101290.71
101290.58
101290.15
101279.96
101280.1
101285.89
101282.52
101274.52
101268.41
101268.22
101269.25
101277.73
101277.93
101285.46
101286.29
101298.61
101282.47
101285.79
101283.84
101271.18
101270.99
101261.84
101259.84
101271.07
101278.12
101286.71
101287.28
101303.07
101287.29
101286.79
101285.8
101279.04
101279.23
101277.37
101278.34
101291.74
101269.02
101285.45
101274.55
101276.21
101257.16
101267.05
101255.85
101258.56
101263.08
101266.77
101259.39
101264.29
101258.23
101267.5
101264.39
101281.54
101270.61
101264.74
101268.56
101264.25
101273.66
101265.72
101258.62
101251.94
101241.96
101250.28
101258.94
101253.3
101271.19
101273.63
101261
101254.94
101262.35
101264.74
101257.3
101250.63
101246.4
101257.15
101260.54
101254.59
101252.15
101260.39
101266.6
101271.7
101268.34
101270.13
101266.99
101265.34
101258.11
101262.31
101264.31
101268.63
101262.29
101271.06
101265.18
101249.56
101251.91
101250.12
101263.38
101271.06
101265.61
101255.02
101261.91
101260.26
101252.24
101243.85
101246.48
101256.41
101246.62
101255.09
101247.58
101256.96
101254.8
101257.06
101260.4
101255.71
101251.1
101239.63
101247.36
101251.49
101245.59
101255.13
101248.74
101260.44
101253.54
101257.63
101263.23
101266.7
101272.89
101290.69
101284.89
101271.38
101269.45
101269.97
101282.95
101262.11
101278.86
101295.63
101266.38
101266.39
101284.54
101249.04
101261.86
101261.46
101241.35
101247.74
101255.39
101242.9
101251.84
101245.25
101234.33
101221.06
101235.66
101230.6
101245.3
101231.96
101245.62
101249.98
101243.84
101237.67
101251.05
101247.9
101258.2
101261.66
101263.14
101259.52
101248.69
101254.24
101259.65
101250.65
101248.79
101236.51
101244.85
101233.75
101243.78
101246.09
101236.12
101232.84
101235.57
101222.48
101237.01
101224.99
101238.59
101227.91
101243.21
101241.2
101252.91
101233.67
101234.95
101215.89
101215.67
101225.71
101229.33
101237.38
101221.26
101233.79
101242.65
101236.56
101225.59
101208.76
101223.12
101231.18
101219.5
101201.9
101187.32
101210.13
101198.93
101221.51
101203.84
101226.72
101245.03
101257.24
101265.97
101278
101273.96
101271.44
101275.59
101264.77
101268.18
101268.92
101262.06
101260.98
101255.35
101243.07
101251.26
101252.13
101237.67
101250.64
101266.31
101266.09
101250.46
101237.29
101236.85
101254.76
101273.5
101288.41
101307.36
101303
101273.21
101276.32
101254.11
101252.04
101265.55
101246.14
101246.72
101260.39
101271.51
101278.4
101279.04
101280.56
101285.64
101284.09
101296.65
101300.27
101307.7
101313.85
101321.03
101324.93
101330.39
101330.34
101331.89
101333.6
101342.42
101335.06
101324.96
101335.28
101363.64
101356.92
101337.16
101338.78
101336.69
101323.75
101322.65
101320.95
101322.19
101325.05
101338.97
101324.04
101354.02
101348.28
101333.51
101339.02
101373.21
101416.7
101339.07
101361.77
101355.98
101340.22
101333.57
101324.7
101339.5
101333.76
101336.34
101332.84
101336.78
101373.68
101421.39
101336.12
101325.53
101341.52
101340.57
101355.11
101360.89
101334.51
101324.46
101323.76
101340.87
101332.32
101328.22
101345.24
101316.81
101439.83
101421.58
101336.1
101353.95
101332.26
101315.06
101319.1
101308.56
101308.73
101318.82
101311.81
101311.77
101316.38
101315.58
101306.88
101307.36
101303.69
101304.38
101308.63
101309.55
101304.19
101302.56
101305.4
101306.96
101313.74
101307.1
101302.06
101292.97
101301.57
101301.28
101300.1
101298.68
101289.03
101291.38
101291.89
101289.85
101297.35
101301.7
101301.2
101292.67
101292.72
101284.66
101279.88
101278.67
101278.16
101279.64
101282.04
101293.28
101290.28
101296.92
101300.02
101292.29
101285.72
101287.32
101298.66
101292.3
101294.49
101284.92
101284.25
101281.84
101273.2
101275.24
101272.21
101273.51
101272.04
101272.11
101272.65
101275.94
101275.37
101262.86
101263.09
101267.15
101267.08
101258.78
101258.9
101251.93
101251.46
101236.39
101236.67
101247.47
101247.67
101227.98
101228.33
101236.52
101223.84
101203.91
101219.51
101219.09
101190.8
101213.53
101192.59
101214.53
101234.77
101249.13
101244.6
101262.59
101312.69
101298.85
101264.89
101255.99
101254.67
101280.34
101244.9
101273.54
101250.42
101262.61
101275.06
101276.31
101280.16
101312.17
101281.54
101314.66
101262.66
101247.23
101251.32
101311.75
101356.2
101291.47
101332.89
101279.9
101303.31
101284.02
101296.96
101282.67
101290.75
101286.21
101278.19
101281.51
101283.88
101286.48
101287.79
101289.17
101284.38
101289.73
101287.68
101288.41
101280.12
101281.75
101281.12
101277.01
101271.96
101275.99
101274.08
101278.95
101285.72
101289.91
101291.15
101286.82
101280.28
101285.37
101283.84
101285.44
101287.76
101294.22
101297.91
101289.14
101284.56
101291.82
101288.09
101288.43
101279.01
101280.3
101286.58
101280.48
101281.24
101278.02
101274.78
101270.03
101267.73
101273.35
101276.95
101286.12
101283.24
101282.15
101295.85
101294.72
101299.47
101299.74
101298.34
101306.26
101313.38
101315.29
101315.34
101314.43
101315.41
101313.44
101313.05
101312.9
101317.9
101307.09
101314.35
101311.93
101306.47
101301.84
101305.25
101305.36
101314.68
101306.48
101300.89
101299.66
101303.28
101307.27
101317.88
101309.82
101310.59
101301.4
101304.27
101312.75
101305.2
101299.06
101289.58
101289.03
101289.71
101290.14
101281.21
101281.63
101275.51
101276.75
101288.02
101289.63
101275.73
101278.58
101269.54
101268.74
101278.13
101272.35
101273.46
101272.11
101270.38
101271.5
101274.12
101281.57
101279.1
101278.14
101268.33
101267.59
101269.76
101280.25
101276.03
101271.87
101270.1
101270.3
101279.86
101280.63
101286.23
101293.81
101300.59
101290.71
101288.55
101289.36
101289.82
101296.53
101286.96
101297.41
101298.84
101291.65
101292.98
101287.28
101279.65
101285.47
101285.51
101277.83
101279.15
101273.9
101272.37
101266.09
101271.84
101275.76
101275.05
101284.38
101279.82
101282.42
101279.04
101279.66
101278.79
101286.04
101285.07
101289.83
101283.17
101286.98
101286.71
101278.34
101270.23
101270.87
101264.03
101272.87
101272.4
101263.46
101261.92
101269.58
101273.9
101274.43
101267.58
101268.71
101273.88
101277.46
101275.13
101267.57
101265.02
101264.69
101275.17
101265.57
101258.09
101261.95
101265.87
101269.32
101263.69
101262.09
101264.24
101270.38
101272.06
101266.45
101263.65
101269.49
101267.16
101260.33
101257.87
101264.73
101261.21
101264.18
101267.48
101260.56
101255.95
101252
101261.21
101265.22
101257.74
101248.92
101252.46
101257.01
101261.16
101267.55
101274.53
101267.5
101260.3
101256.61
101264.34
101271.75
101281.08
101279.84
101275.1
101286.45
101272.96
101273.74
101270.5
101270.83
101263.73
101280.02
101296.1
101286.63
101276.51
101279.51
101280.36
101278.72
101272.04
101287.65
101270.22
101269.28
101264.26
101265.78
101253.56
101283.73
101313.39
101290.91
101277.1
101280.22
101282.26
101280.18
101276.58
101302.22
101271.3
101268.3
101260.74
101263.14
101251.57
101278.62
101324.02
101290.13
101279.1
101282.2
101286.74
101287
101289.39
101293.32
101301.53
101290.47
101288.65
101299.49
101291.07
101289.63
101278.98
101279.37
101286.06
101282.86
101280.17
101283.97
101284.85
101291.82
101300.69
101304.07
101324.33
101327.54
101312.95
101308.31
101304.88
101302.12
101323.68
101313.74
101357.11
101355.48
101345.51
101311.17
101304.67
101313.56
101309.19
101307.7
101332.52
101290.9
101325.09
101299.5
101313.99
101319.33
101315.41
101298.42
101299.05
101300.04
101298.31
101307.46
101330.87
101325.31
101319.58
101298.33
101298.09
101301.03
101299.28
101287.06
101292.89
101290.18
101303.58
101301.75
101310.46
101311.69
101311.52
101286.6
101289.63
101301.72
101301.17
101287.31
101287.68
101272.6
101272.72
101278.97
101278.73
101269.25
101273.49
101265.81
101266.48
101272.4
101269.76
101273.17
101263.8
101265.39
101262.26
101265.88
101274.87
101262.39
101259.94
101271.64
101261.8
101260.16
101251.22
101254
101257.7
101247.84
101252.81
101253.28
101258.83
101250.32
101256.62
101254.94
101257.62
101248.13
101252.42
101247.13
101240.99
101252.19
101249.22
101237.13
101245.19
101247.5
101238.51
101225.36
101237.05
101234.32
101237.62
101243.83
101252.94
101264.14
101255.91
101243.53
101236
101247.39
101259.5
101264.25
101262.75
101271.05
101260.83
101251.43
101248.36
101258.73
101269.42
101260.06
101253.74
101256.95
101239.94
101224.9
101244.51
101249.3
101242.83
101250.74
101263.96
101261.01
101259.93
101262.12
101286.09
101303.64
101366.19
101301.02
101338.6
101299.92
101288.53
101301.29
101341.41
101260.35
101369.31
101451.66
101321.45
101319.46
101396.56
101259.2
101293.03
101305.4
101385.64
101314.47
101323.65
101446.33
101322.23
101363.61
101266.71
101403.18
101329.14
101300.47
101434.89
101491.34
101651.96
101466.14
101422.61
101447.51
101205.01
101226.15
101498.68
101277.12
101410.28
101317.17
101358.96
101315.54
101326.5
101307.08
101305.47
101326.63
101317.9
101308.74
101312.19
101319.31
101313.78
101361.52
101337.42
101312.11
101315.27
101318.38
101283.35
101313.22
101287.73
101303.39
101290.81
101301.73
101293
101294.56
101303.29
101292.14
101290.66
101291.16
101288.07
101287.48
101303.81
101290.14
101286.66
101288.1
101272.69
101261.94
101269.28
101275.11
101282.33
101284.06
101287.07
101280.67
101275.16
101276.27
101282.22
101284.4
101291.91
101298.73
101302.36
101295.1
101290.02
101290.91
101288.91
101292.65
101301.07
101299.05
101287.76
101287.04
101285.63
101287.65
101283.93
101291.02
101281.23
101293.45
101286.8
101294.25
101302.4
101315.42
101320.44
101317.11
101301.76
101302.17
101303.95
101303.17
101311.02
101332.38
101326.51
101324.65
101296.01
101303.14
101305.6
101303.69
101302.96
101322.87
101299.98
101315.29
101300.62
101310.37
101302.79
101309.13
101308.26
101313.95
101309.72
101302.4
101302.4
101306.02
101307.16
101306.2
101311.12
101311.78
101318.4
101315.1
101309.1
101313.96
101305.87
101309.06
101304.85
101302.31
101300.49
101305.43
101316.27
101306.33
101305.76
101300.8
101301.01
101298.1
101305.93
101320.6
101319.14
101312.65
101319.82
101327.29
101319.64
101304.06
101301.81
101302.77
101301.57
101314.36
101299.82
101306.32
101298.13
101305.53
101316.15
101309.39
101300.16
101300.66
101282.23
101287.86
101295.86
101297.42
101302.74
101293.79
101300.01
101298.5
101302.31
101299.41
101303.46
101294.29
101293.07
101289.87
101287.52
101293.23
101296.34
101298.88
101299.42
101295.86
101288.87
101294.38
101288.47
101276.81
101275.83
101272.38
101271.86
101268.57
101268.21
101265.6
101265.38
101264.21
101264.06
101264.43
101264.47
101275.38
101276.53
101264.73
101263.71
101262.12
101262.84
101261.12
101274.56
101274.41
101260.87
101260.12
101260.28
101247.86
101251.61
101254.13
101255.44
101252.32
101238.14
101242.58
101241.52
101238.53
101231.48
101233.29
101249.27
101249.15
101247.72
101232.65
101235.38
101209.24
101203.58
101217.04
101224.92
101222.18
101217.26
101197.1
101197.66
101201.28
101194.67
101175.7
101161.5
101198.52
101208.94
101206.61
101173.51
101176.56
101205.37
101229.53
101230.96
101252.18
101265.92
101268.04
101282.35
101280.39
101314.47
101289.07
101276.85
101279.94
101255.97
101235.73
101249.46
101248.33
101261.33
101269.22
101278.98
101272.29
101273.17
101279.17
101280.78
101281.25
101287.38
101285.66
101276.65
101271.53
101271.07
101264.58
101264.56
101273.43
101279.56
101279.31
101281.03
101283.04
101290.52
101295.58
101299.52
101291.21
101289.51
101290.14
101287.01
101286.99
101295.21
101289.04
101285.17
101286.6
101273.82
101267.72
101273.4
101277.84
101282.64
101287.53
101287.9
101282.19
101278.9
101280.19
101284.08
101283.05
101290.21
101292.28
101299.22
101296.72
101289.65
101290.25
101286.89
101291.13
101293.15
101291.94
101287.5
101288.22
101285.64
101286.9
101282.54
101288.74
101294
101291.9
101297.94
101293.83
101308.96
101303.88
101281.91
101279.88
101276.48
101279.85
101276.02
101291.36
101314.95
101301.38
101325.61
101265.52
101269.23
101257.6
101258.2
101276.45
101254.04
101216.57
101242.8
101254.69
101267.21
101269
101254.18
101253.98
101269.03
101258.67
101258.53
101243.02
101233.31
101208.15
101210.49
101200.75
101201.55
101216.37
101216.37
101192.36
101225.79
101221.65
101243.09
101238.57
101236.2
101204.32
101210.85
101164.71
101191.79
101159.33
101191.49
101168.36
101166.04
101120.43
101174.32
101161.89
101189.94
101205.52
101221.7
101202.78
101219.14
101201.5
101219.54
101223.79
101231.88
101221.4
101236.2
101227.96
101210.73
101203.92
101223.16
101208.75
101226.83
101242.29
101246.08
101232
101240.34
101235.23
101224.74
101241.03
101235.78
101235.4
101243
101227.61
101215.66
101217.05
101196.06
101206.53
101215.39
101226.37
101206.61
101192.21
101179.76
101197.12
101220.03
101235.98
101218.66
101239.06
101233.6
101252.26
101259.39
101269.99
101255.6
101242.54
101241.81
101255.47
101269.96
101258.64
101251.52
101226.81
101226.97
101202.42
101199.39
101230.06
101224
101250
101258.09
101270.53
101253.3
101236.81
101237.16
101253.96
101261.72
101249.16
101250.03
101252.88
101254.45
101263.41
101258.3
101247.09
101244.4
101256.25
101262.11
101260.72
101253.84
101262.04
101275.05
101272.34
101270.01
101270.84
101274.9
101286.9
101286.79
101288.53
101273.94
101263.08
101271.99
101257.32
101257.91
101256.82
101260.61
101269.62
101255.96
101244.92
101246.72
101250.34
101253.86
101240.91
101247.56
101250.15
101255.95
101261.29
101265.51
101269.56
101267
101277.91
101292.55
101298.98
101303.34
101308.8
101311.39
101313.83
101314.64
101313.95
101312.81
101312.95
101309.21
101302.88
101308.68
101307.2
101298.61
101291.87
101300.34
101307.75
101297.43
101299.15
101300.03
101290.02
101288.44
101290.36
101298.01
101293.87
101299.83
101300.65
101309.35
101304.67
101305.72
101297.82
101295.28
101306.14
101307.14
101312.57
101309.64
101310.52
101309.69
101313.04
101314.87
101311.18
101305.36
101309.69
101315.4
101311.26
101310.94
101307.39
101311.9
101314.78
101317.48
101317.45
101311.91
101314.42
101313.16
101317.82
101315.25
101314.17
101313.28
101314.18
101314.44
101318.55
101315.59
101310.5
101305.67
101303.58
101305.48
101306.01
101293.23
101304.41
101302.33
101307.5
101308.97
101308.72
101301.63
101292.52
101299.73
101299.5
101291.87
101289.9
101290.98
101300.87
101295.42
101301.38
101299.41
101298.3
101305.26
101306.96
101307.36
101310.04
101301.71
101295.95
101294.09
101284.92
101275.1
101287.31
101289.2
101276.47
101278.86
101276.23
101288.46
101283.22
101286.24
101283.57
101279.52
101290.63
101295.93
101291.5
101296.24
101284.39
101278.26
101294.05
101278.18
101271.75
101281.19
101279.03
101274.25
101270.44
101267.43
101284.23
101276.05
101280.69
101282.61
101288.6
101287.54
101295
101278.99
101271.1
101284.12
101293.78
101293.58
101284.3
101274.64
101286.81
101287.49
101275.37
101277.63
101274.7
101287.24
101281.82
101284.65
101283.18
101278.71
101289.9
101295.13
101289.8
101293.88
101281.48
101277.11
101291.11
101295.43
101297.59
101288.02
101284.93
101281.83
101285.84
101294.9
101288.53
101296.99
101298.26
101284.81
101289.95
101284.16
101295.07
101296.54
101309.44
101296.23
101302.51
101303.3
101295.05
101301.21
101298.93
101293.23
101292.29
101285.45
101286.94
101277.52
101280.81
101271.47
101273.17
101277.73
101274.92
101283.66
101278.15
101294.24
101286.22
101286.93
101281.08
101279.31
101275.64
101270.58
101275.18
101272.9
101262.82
101275.35
101271.08
101264.95
101258.37
101256.26
101276.97
101266.52
101273.59
101276.93
101284.87
101287.77
101293.21
101292.93
101295
101292.17
101285.39
101295.88
101303.09
101300.64
101304.35
101293.8
101286.62
101297.03
101309.77
101304.89
101294.53
101301.51
101309.55
101302.02
101304.43
101303.98
101311.24
101309.03
101309.01
101304
101297.53
101295.76
101299.31
101300.41
101305.61
101292.46
101283.77
101293.6
101305.25
101297.73
101305.84
101314.34
101311.45
101305.69
101303.82
101303.75
101304.19
101296.93
101307.45
101305.06
101307.5
101308.35
101313.16
101313.24
101310.08
101311.35
101306.21
101311.5
101310.15
101312.68
101308.64
101312.07
101312.14
101315.81
101315.59
101310.18
101308.44
101312.94
101309.47
101306.65
101302.45
101310.13
101314.34
101315.31
101316.21
101312.16
101312.02
101312.58
101306.88
101314.34
101318.89
101314.01
101318.15
101319.29
101310.65
101317.4
101316.29
101317.55
101319.37
101320.62
101315.41
101323.37
101323.2
101320.08
101310.66
101316.19
101319.22
101315.46
101316.47
101309.75
101312.99
101313.88
101307.66
101312.67
101318.68
101313
101317.15
101308.44
101305.9
101301.15
101300.68
101310.34
101307.55
101308.01
101300.01
101302.77
101302.18
101297.63
101295.11
101304.88
101291.27
101291.57
101291.18
101289.46
101291.65
101287.57
101288.54
101291.88
101277.1
101284.09
101283.48
101272.34
101274.79
101278.99
101276.75
101272.54
101269.73
101267.84
101280.55
101273.67
101269.45
101266.67
101264.72
101280.31
101271.15
101275.6
101277.76
101280.36
101282.04
101278.1
101274.79
101269.85
101267.05
101272.08
101266.98
101271.21
101276.16
101283.77
101284.72
101283.33
101286.18
101283.89
101286.76
101273.17
101272.47
101289.15
101282.2
101278.48
101280.72
101273.2
101276.31
101273.09
101281.06
101277.78
101269.13
101262.06
101268.42
101263.19
101259.35
101264.97
101256.73
101264.7
101270.35
101266.66
101272.79
101269.29
101286.32
101292.81
101295.83
101305.95
101292.91
101294.84
101304.72
101305.17
101305.19
101303
101303.6
101292.6
101292.4
101282.94
101284.17
101279.06
101277.06
101284.63
101295.09
101296.02
101280.21
101284.34
101282.56
101287.38
101300.6
101295.47
101297.74
101297.49
101291.04
101289.18
101296.83
101296.62
101298.13
101298.82
101304.15
101304.61
101313.72
101303.36
101307.57
101310.1
101311.15
101305.53
101296.7
101294.92
101282.88
101284.15
101291.91
101272.24
101277.26
101256.64
101262.76
101264.18
101270.04
101265.84
101257.96
101251.72
101256.24
101266.43
101261.38
101252.16
101242.76
101253.5
101260.7
101270.02
101270.42
101272.18
101291.87
101284.49
101283.55
101281.79
101282.08
101280.85
101282.39
101283.38
101290.16
101298.17
101300.07
101305.79
101290.41
101290.49
101291.03
101287.99
101290.68
101305.89
101295.25
101299.65
101291.69
101291.67
101301.27
101308.61
101306.01
101312.34
101305.82
101317.25
101308.25
101305.14
101307.78
101317.05
101314.81
101307.5
101304.6
101305.37
101304.2
101301.57
101302.07
101294.92
101302.68
101307.24
101307.94
101308.55
101299.27
101302.43
101302.61
101309
101307.56
101310.74
101311.82
101304.79
101297.57
101288.91
101290.13
101289.07
101281.2
101272.41
101266.03
101259.32
101251.86
101260.42
101253.09
101261.16
101254.07
101244
101234.67
101244.27
101255.1
101246.92
101233.33
101222.76
101206.28
101184.88
101210.71
101194.32
101160.42
101164.8
101182.67
101150.51
101180.56
101190.06
101206.95
101217.73
101232.01
101220.63
101241.34
101231.48
101208.64
101222.19
101207.44
101236.72
101255.42
101303.99
101282.12
101256.37
101283.44
101250.04
101252.68
101251.81
101250.15
101241.49
101280.5
101310.83
101243.28
101251.03
101252.25
101256.04
101284.87
101244.4
101285.09
101247.62
101255.08
101245.69
101209.9
101214.53
101225.8
101233.37
101203.11
101195.1
101180.91
101188.08
101222.35
101214.73
101223.14
101189.42
101180.55
101200.25
101230.83
101215.8
101211.74
101161.95
101166.54
101161.2
101158.85
101211.64
101206.42
101201.21
101201.34
101214.54
101244.11
101243.89
101239.96
101241.51
101297.54
101225.11
101289.51
101236.51
101239.67
101231.77
101228.31
101220.41
101285.89
101399.58
101280.02
101356.59
101242.97
101243.87
101271.21
101260.4
101332.98
101245.3
101326.68
101356.11
101296.62
101333.75
101250.38
101243.79
101243.61
101251.34
101298.4
101231.41
101290.28
101249.43
101244.4
101258
101271.05
101246.59
101358.33
101394.22
101287.55
101355.52
101245.03
101258.16
101269.54
101271.88
101281.22
101283.67
101271.03
101258.46
101250.12
101219.6
101218.45
101181.3
101181.33
101222.17
101258.98
101258.56
101317.35
101283.75
101283.97
101279.12
101282.22
101286.68
101286.68
101289.15
101289.12
101288.59
101300.6
101291.88
101288.42
101278.11
101278.61
101272.97
101281.02
101281.04
101284.89
101282.64
101281.12
101295.06
101294.9
101299.86
101298.02
101299.19
101297.32
101296.08
101288.52
101273.15
101273.77
101288.5
101287.11
101275.23
101276.7
101287.11
101294.28
101281.74
101283.16
101296.4
101299.92
101297.65
101299.92
101308.42
101299.43
101289.75
101289.45
101291.15
101289.46
101275.81
101278.79
101279.02
101282.43
101285.69
101295.56
101300.54
101296.62
101302.25
101307.93
101302.48
101306.39
101313.77
101306.53
101307.31
101299.44
101299.36
101296.97
101303.66
101313.49
101302.94
101315.74
101308.08
101318.74
101295.9
101297.26
101297.5
101303.39
101304.47
101303.37
101293.86
101300.71
101297.52
101312.16
101325.22
101294.07
101298.12
101297.57
101312.34
101318.89
101303.34
101318.98
101318.47
101311.22
101310.6
101318.04
101309.96
101304.56
101305.46
101304.1
101296.22
101293.57
101296.32
101292.5
101282.75
101289.06
101283.82
101288.35
101290.63
101290.27
101287.74
101298.1
101289.67
101297.81
101292.4
101299.94
101297.48
101289.58
101287.67
101285.81
101287.85
101286.48
101292.03
101285.01
101282.05
101279.31
101272.23
101272.52
101267.7
101268.58
101278.26
101271.75
101260.61
101259.4
101270.42
101277.32
101285.58
101300.5
101301.46
101287.11
101286.36
101284.91
101283.8
101284.39
101296.76
101280.77
101284.88
101296.95
101283.14
101281.35
101268.45
101268.89
101275.99
101277.18
101277.16
101272.21
101267.15
101267.32
101259.33
101259.03
101248.76
101248.15
101247.16
101247.88
101259.26
101260.05
101252.8
101261.16
101260.44
101273.14
101272.96
101270.81
101264.89
101265.2
101260.28
101255.91
101255.96
101261.3
101270.22
101254.94
101255.12
101269.72
101261.05
101260.79
101272.27
101269.43
101265.02
101260.91
101261.74
101274.64
101271.91
101265.45
101259.22