/*--------------------------------*- C++ -*----------------------------------*\
  =========                 |
  \\      /  F ield         | OpenFOAM: The Open Source CFD Toolbox
   \\    /   O peration     | Website:  https://openfoam.org
    \\  /    A nd           | Version:  7
     \\/     M anipulation  |
\*---------------------------------------------------------------------------*/
FoamFile
{
    version     2.0;
    format      ascii;
    class       surfaceScalarField;
    location    "190";
    object      phi;
}
// * * * * * * * * * * * * * * * * * * * * * * * * * * * * * * * * * * * * * //

dimensions      [1 0 -1 0 0 0 0];

internalField   nonuniform List<scalar> 
76358
(
36.223441
-0.011011423
2.0237895
1.4732638
-1.4801351
-2.0332715
0.060250042
-34.804542
-7.1891373e-05
2.1438287
2.1306894
-2.0922368
-2.0997629
-1.4916556
1.4735167
2.0321926
-2.0570901
-0.059267747
-36.223616
-1.4918427
1.4732884
-2.0571277
2.0321842
-34.679027
-2.0393176
2.0203633
-2.0319604
1.9947037
0.00049454936
-34.805213
2.1307705
-2.0922545
-2.0991882
2.144663
0.0003779275
0.010637268
0.00010938581
-2.0833286
2.0766774
2.0776894
-2.0879576
1.4731388
2.0237751
-2.0333146
-1.480215
2.0766413
2.0772976
-2.0878785
-2.0832461
3.491124e-05
-0.053531511
10.410345
0.36953809
-0.37468658
-0.53902123
0.53251811
-0.0098978753
-8.2586224
-0.0056132143
9.666499
-0.0078268648
-7.6828009
10.341057
0.0057803678
-7.4060485
7.4263607
-0.034529718
-0.034271753
0.001221275
0.0015413574
-9.2578854
0.37651679
-0.3872255
-0.52623482
0.51681587
-0.060318991
-36.223131
1.4735567
2.0321004
-1.4915832
-2.0570816
-2.0998013
2.1437283
2.1305165
-2.0922883
-34.804326
0.011065607
-2.4925644
-2.5119194
-2.1919267
-2.3386869
0.38553658
-0.38221916
-0.38957379
0.53467822
-2.5294848
-2.4596001
-2.1987404
-2.2185385
-0.38784906
0.54434709
0.54351213
-0.38318411
-0.00014821476
-0.42645587
-0.015860512
-2.0485736
-0.00034088075
-0.038253964
0.010584528
-7.8107966
-0.52178329
-0.50292995
0.41291314
-0.00015443457
0.12948249
0.32585433
-0.37517127
-0.52770167
0.41952874
-8.2486588
-7.6939765
-0.1303157
-0.023597203
-0.09550014
0.023862072
9.3846615
0.37650051
0.36861282
-0.38054707
-0.38647608
-0.38664096
-0.38073227
0.36839787
0.37632303
-9.3875586
7.6940336
-0.094986766
-9.6665842
-0.13063314
-0.12882907
0.33189244
-0.37576754
0.41620556
-0.36717244
-0.36699447
-0.37554267
0.41638349
0.33210703
-1.8169108
-0.0033731384
-0.014533706
-0.046969753
-0.044868301
-2.4760115
2.0867296
0.086908226
-0.097654533
-0.13054513
0.10699959
-2.6288138
0.0017045898
-0.024894766
0.018836167
-0.63974823
-0.61828878
-0.55959873
-0.61088313
0.022862288
0.16999898
-2.0832149
0.16503599
0.083830333
-0.096678299
0.10170483
-0.12908661
-0.11121738
-2.3438085
-0.47675445
0.0020233925
0.0057213781
-0.0040804915
-0.0020164787
-0.66499031
0.52140938
0.00045703067
-0.65514305
-0.0013489899
0.0070809437
0.0050626398
0.00011746844
-0.5714441
0.0048984924
0.013910361
-0.51608925
0.012749792
-0.013104743
-0.62329531
-0.010792284
-0.57661627
4.4482417e-06
-0.0074799995
-0.0011128076
-0.57609224
0.010750312
-0.02391592
0.020671101
-0.032443364
0.025730542
-0.00020389424
-0.1288487
0.0014066612
-0.52799071
-0.00082309851
-0.52668672
-0.0066365794
-0.0066035303
0.095327789
-0.097414777
-0.13141473
-2.0842339
-0.009703001
-0.37306443
0.36673406
-0.53670436
0.53379142
0.51247946
-0.51921299
-0.53948352
-9.0936861e-05
-9.907746
2.5269082
-0.13213279
0.13093876
0.13366739
-0.13507258
-0.0024377001
-1.9947164
0.002934685
0.10770799
-0.13121473
-0.13434675
0.11317465
2.013275
-0.13403755
0.1126574
0.10752
-0.12957514
-2.469756
-7.8972629e-05
-0.033681956
-7.0917208e-05
-0.0059582579
-0.64134676
-0.61832026
-0.56448227
-0.57416978
0.17194919
-9.4218141e-05
-0.62646755
-0.64167374
-0.57385486
-0.56866379
0.17077155
-0.52581782
0.0051203192
0.0070005778
0.00012466105
0.0011298822
-0.65963608
0.53209835
0.0011011141
0.00021770924
-0.66763926
0.0071628577
0.0015567084
-0.004644723
-0.57693665
0.0016501104
0.013239257
-0.57502812
0.013618671
0.0013486332
-0.56313707
-0.012105354
0.00047373854
-0.56282177
-0.012138872
-0.0011472408
-0.00034655394
0.57598049
-0.011998419
-0.56201454
0.53094682
0.00029433289
-0.66620824
-0.0033778877
0.0071920559
-0.52152712
0.0073749814
-2.6015876e-05
0.00115509
-0.65193682
-2.6191445e-05
0.57267242
-0.011883669
-0.55995304
-2.717441e-05
0.0025065554
0.013089766
-3.1192314e-05
0.013159434
-0.0016500958
0.5843467
0.010729054
-0.57753993
-0.0027262912
-0.0049921642
0.58405981
-0.57831727
0.010838788
-0.0043872733
0.58013811
-0.57843765
0.011313324
0.0017644987
0.57201539
-0.57532301
0.01106621
-0.10027984
0.62548708
-0.5204265
0.0097335448
0.1113703
2.2121957
-2.3692919
-0.12817077
-0.092701574
0.087728244
-0.092655203
-0.12810273
0.10034938
0.087781356
0.044915796
2.0832121
0.083906765
0.1017758
-0.12901878
-0.096602576
-2.3438133
0.37522225
1.8169167
-0.046733121
-2.4760327
10.417996
0.32582033
0.41965781
-0.52756961
-8.2488039
-0.0099366148
8.3792559
-0.19904862
-0.0094047933
-0.061134999
-0.012843366
-9.2577858
-0.0025219387
0.51689479
0.376422
-0.38733242
-0.52614649
0.012127297
0.53474238
0.38540994
-0.3823516
-0.38953433
-2.3387267
-2.4925945
-2.5118668
-2.191848
0.29899787
8.8001626
-0.38764195
0.5445574
-0.38254582
0.54415322
0.000456792
-2.5295347
-2.2184717
-2.4595429
-2.1984635
8.3868704
0.00032317524
-10.129561
-0.072971537
0.00030930669
0.51966946
-0.52678494
0.51769042
-0.52279165
0.00042393792
-0.0037818249
-2.0944013
0.0036283518
0.0013388262
-0.0051984448
0.0018806474
-2.0926578
-1.8938962
0.0050621141
-0.0024501679
-0.0022953718
-2.6637086
2.0926955
0.0042943034
-2.6270557
0.0018980814
-2.3245029
0.0036972081
-0.0042579248
-2.3260236
0.0051185475
-2.6270233
0.0016657131
-0.0070157823
0.013769518
-2.1032313
0.0041966245
-1.9066266
0.0068486923
-0.015041177
-0.014857775
-2.6412984
2.1032443
-0.012685317
-0.00059468402
-2.4945793
0.013823672
0.0038919073
-2.3073372
0.0045435746
0.0043632167
0.012761178
0.00031294234
0.00012152962
-2.3332181
-0.00030134276
-2.4945609
2.104158
-0.00089176985
0.002622298
-2.4938318
2.6285583
0.022862791
0.0014909095
0.0077737255
0.0012640359
2.3133268
0.0030393594
-2.3129417
0.002753119
-0.0042649801
-2.3036624
0.0003346092
-2.0874933
0.00022921334
0.0088628945
-2.6181614
0.00027761463
-2.3035498
0.00040513119
-0.0030285738
-2.2887732
-0.024878213
0.00047087079
0.012659327
-2.2988267
0.010262845
0.0038921196
0.0086246803
-2.3119223
-0.0029106428
0.00057433369
0.012540294
-2.295085
2.097693
0.00031445925
-2.4808417
0.00029755919
-0.54420698
2.6178518
0.025242964
-2.0974039
-0.001186308
0.29847718
8.799635
-0.011707638
-0.38233186
-0.38712486
0.5448662
-2.4595472
-2.1983799
-2.5294441
-2.2181931
2.031812
8.3867724
0.0097351438
-10.129519
1.9948205
2.02077
-2.0388538
-34.679094
0.0020736945
-2.0921666
-0.51699061
-0.0053811505
0.0037075124
-0.0023181736
-2.3236666
0.0023653898
-0.0041052242
-2.3123096
-0.0045147727
-2.3030357
-0.51772575
-0.0010798224
-2.0872756
0.072489883
0.0029389004
0.51992306
-0.52630279
-0.52265349
0.013166409
-8.3791432
-0.060395859
-0.19825933
-10.417987
9.2570955
0.53503949
0.38569898
-0.38195762
-0.38903922
-2.51181
-2.1915915
-2.3385308
-2.4925544
0.51713586
-0.52568266
0.37667346
-0.38694876
0.0036970262
-2.0922057
-0.0052478124
-2.0939356
0.00096531707
0.0083179761
-2.6279353
-0.0015863273
0.009165629
-0.0025834643
-2.3027997
-2.3117865
-0.005137291
0.0025093845
-0.023478398
-2.297526
0.011305216
-0.0045967031
-2.2878798
0.013303307
-0.0033866621
-0.0033094203
0.013398002
-2.2940074
-0.0022832849
-2.4805247
2.1036026
0.00033539111
-0.00017788127
-2.4931683
-0.0041312232
2.6264414
-0.0070928266
-2.1027337
0.014293315
0.004737758
0.0022290148
-0.0044823773
-2.3251204
0.52581493
0.0020953681
-2.6263965
0.37653422
-0.38708257
-9.2570342
-1.8935964
-2.6633033
-0.38557612
-1.906332
0.0072109558
-0.38206353
0.53489019
-0.38917734
0.012034681
-2.3385484
-2.1916038
-2.5118014
-2.4925504
-0.014744984
-0.014637388
-2.6409708
-0.012169964
-2.4940125
0.00041404464
2.306374
0.012423938
0.00081658042
-2.3321986
0.0098376093
-2.3104369
0.011576585
0.013714367
2.2669158
-0.0090894293
-2.2732797
-0.0012404175
2.2246147
0.024100271
-2.2225
-0.012442116
0.02233995
2.2272689
-2.2258669
-0.0086577402
2.2695805
0.011670566
-2.2764107
0.001062991
0.0033846362
2.2986755
-2.3116594
2.1041758
0.0022236779
-2.4937802
0.0011418255
0.022644555
-2.0977939
0.02413832
-6.751763e-05
0.0022126534
-2.4808742
-9.2814708e-05
2.2882535
0.011632263
-2.2941886
-9.9921586e-05
-0.0025759218
0.011682449
-5.3689471e-05
0.010225403
0.0093654241
0.010016995
-2.2245623
0.016229786
-0.00023660874
0.020646797
-2.2216588
-0.00024741733
2.0242185
-0.00092820078
-1.978396
-0.001907563
-0.017746834
-0.00078804536
-0.0015625381
0.00094618118
0.019030947
-0.0092864573
-2.0223481
-0.017265058
-0.001375103
-0.021187101
-1.9764223
-0.0015665741
2.2204042
-0.012234665
-2.2166495
0.0010071703
-0.011143814
-0.012461304
0.00069774046
-0.010601037
-0.0049907247
-2.2971696
0.0032151863
-0.023119803
-0.014040487
-2.102699
0.0043631612
-0.00013262783
-2.4939572
-0.00054982097
0.38734804
2.1034268
0.0026217144
-2.4929793
0.0040781678
-2.3100704
2.2863887
-0.0029071817
-2.2921305
0.00049253676
-0.024841674
0.00038562244
-0.54395543
-0.0014968371
-2.0968824
0.00020890482
0.54455271
-0.38243371
0.00027556374
-2.2181697
-2.1981848
-2.5293888
-2.4594144
-2.4798274
0.00022582157
0.0095484441
0.00025021723
-0.57251271
-0.57900435
-0.0056848851
-0.58421384
-0.5756178
-0.17259244
0.019221517
0.00056847884
-0.56589927
-0.56907453
-0.0070716246
-0.58217009
-0.5781566
0.027431781
0.0012681394
-0.017294272
-0.56418143
-0.55394402
-0.53378606
-0.5569221
0.0010853834
-0.0019538918
-0.031593364
-0.53001054
-0.4976281
-0.39922069
-0.48966931
-0.027398423
-0.0023397412
-0.028866971
-0.49865918
-0.53243427
-0.49233388
-0.39527814
-0.018374794
-0.00022325706
-0.015296788
-0.55590632
-0.56522635
-0.55799946
-0.53603026
-0.0087709023
-0.0063028306
-0.5696698
-0.58250557
-0.57859352
-0.56662245
-9.831304e-05
-0.0052597987
-0.57928358
-0.57580593
-0.57288687
-0.00011302969
-0.014644647
-0.57838216
-0.57926529
0.0082215605
0.049687661
-0.59902822
-0.57426825
-0.018113681
-0.16489462
-0.049484366
0.014573015
-0.018598774
-0.0031774711
-2.0867138
-0.024822973
0.016150325
0.086906108
-0.097660141
-0.13050307
0.10703835
-2.6288313
0.002033473
0.63975753
0.0057216486
-0.47675426
0.0020879562
-0.61089137
-0.61827072
-0.55956769
0.023191809
0.17002572
-0.51608583
-4.7242662e-05
0.012739155
0.0020169299
-0.013027226
-0.62329092
-0.010803395
-0.0040079647
-0.66499208
0.52140257
0.00047780515
-0.65513783
-0.0012535713
0.007101704
0.005156447
-0.57143521
0.0049953109
0.013926666
-0.57660639
8.8924963e-05
-0.0074671662
0.010666353
-0.57608608
-0.0011322178
-0.00010924439
-0.023918512
0.020669242
-0.03243395
0.02573802
-0.1244275
0.00063529268
-0.48136189
-0.0074704679
-0.0053139152
-2.0758427
0.091191788
-0.095430257
-0.12886131
0.1225161
-0.36668578
-1.7528732
0.0068252263
-0.37312321
-0.53662201
0.52680962
-0.009197914
-10.410597
-0.011816569
-0.017696081
-2.4770308
0.093522925
-0.093809191
-0.12652957
0.12677874
-0.13062093
-2.3434773
-0.098085377
0.66483051
0.0012211238
-0.47534516
0.00090182135
2.0842769
-0.00094580148
0.13208875
-0.1304464
-0.096770895
-2.640606
0.095320218
-0.09742561
-0.13137543
0.12888824
-0.0063269059
-0.47651257
-0.0013322097
-0.0019348733
-0.0026030505
-0.0015641919
-0.60496573
-0.0056281497
0.0011651586
-0.00050268225
-0.57763342
0.023372903
0.031967465
-0.032259805
-0.023759888
0.52798985
-0.0016131172
-0.65919006
-0.00072417022
-0.13097003
0.6596314
0.0025663142
-0.53261783
0.00066598405
-0.53395338
2.5269324
-0.13210389
-0.13497305
0.13376385
-0.0021877043
-1.9947752
7.8110327
0.51288772
-0.51889894
-0.53938334
0.00025333945
-9.908231
0.42665572
-0.52161034
-0.5024945
0.41334059
0.00030679844
-2.0485606
-0.038035285
-0.00013274546
0.10775022
-0.13118036
-0.13424623
0.11327399
0.0031972578
0.62648059
0.007045302
-0.52581114
0.0051919186
-0.56865807
-0.64165471
-0.57379526
0.0062871001
0.17098634
-0.57501608
0.0047307759
0.013667849
-0.0011800816
0.00144098
-0.5631243
-0.012063758
0.00020624635
0.53208405
0.0011846855
0.00031818903
-0.66762691
0.0072399856
0.0016552652
-0.57691963
0.0017630748
0.013332058
0.00057190217
-0.56280386
-0.012062008
-0.0012735846
0.57595522
-0.00025057726
-0.56198824
-0.011870912
0.13393693
0.53093127
0.00037152057
-0.66619511
2.0132271
0.11276802
0.10768335
-0.12941001
-2.4697682
0.0001393671
-0.033227674
0.00011975003
-0.64136006
-0.57413077
-0.56437624
-0.61829926
0.17257628
0.00018597784
0.0073041284
-0.0033096358
-0.0024164929
0.013308141
-0.0075300113
-0.57263063
0.013307757
6.0155409e-05
-0.52149972
4.4155975e-05
0.0013278055
-0.6519124
4.6392846e-05
-0.55991205
-0.011693939
5.259076e-05
-0.00014113719
-0.0028185494
5.86073e-05
-0.54463691
-0.032392767
0.026184245
0.026178952
-0.032344494
-0.00039988708
-0.002768356
-0.54650302
-0.032474847
0.026193548
-0.032389784
0.026212971
-0.00058480998
-0.0026903579
-0.032539107
0.026115961
0.026220615
-0.032444801
-0.54728125
-0.54828321
-0.032627883
0.026011159
0.026146059
-0.032498159
0.00092829459
-0.54944156
-0.032472265
0.032177945
0.032050852
-0.032265145
0.00023598542
-0.00066341039
-0.66474314
0.53613078
-0.67090857
-0.00089093304
3.2266017e-05
0.00024335288
-0.1334076
-0.53477312
-0.00053940302
-1.9571449
-0.13450899
-0.12999548
0.12903591
0.00013773579
-0.0014759888
0.13598655
-0.13405947
0.13152831
-0.12960031
-2.4785513
0.00012838364
0.13356263
-0.1317636
-0.13449851
0.13638872
-2.5402695
-0.00069004035
-0.53207864
0.00068163742
0.000906537
-0.52732616
0.00075593124
0.001084722
0.00078631535
-0.00078848407
-0.65885511
-7.8785985e-05
-0.66476174
0.48131909
0.00051724125
-0.0036644682
-0.60478021
0.0001505797
0.0038833327
-0.57740364
0.00014847394
0.032546805
0.023900511
-0.023685819
-0.032233249
0.00022103999
0.023945938
0.032625865
-0.032298857
-0.023751687
-0.57684238
-0.00085987408
0.54942864
0.032785543
0.00016877596
0.032686642
-0.032556233
-0.032383763
-0.54904869
-0.0005917446
-0.66489885
0.53496802
-6.8695057e-06
0.00090090033
-0.6709523
0.00097687995
0.00015292078
-0.00023184709
0.54785359
0.00024318996
-0.54784134
-0.032254943
0.032670517
0.032720407
-0.032182693
0.032782957
-0.032435729
-0.032229545
0.032692557
-0.0002047689
-0.13135443
0.00025797218
0.16395989
0.00012429173
-0.00025788408
0.16351093
0.00020890808
-0.13111992
-0.023570585
0.16522909
-0.11864304
0.00062716238
-0.13122367
0.6489507
-0.00049043819
-0.51351985
-0.023544872
-0.03274914
0.032890022
0.13045451
2.1293771
0.098822794
-0.098203203
-0.13089691
0.13114216
-0.13097887
0.098761451
-0.098268794
-2.3920548
0.011763296
2.0758276
0.093443333
-0.093880734
0.12670644
-0.12659818
-2.3434483
1.7528473
-0.017895868
-2.4769849
0.0053642095
0.091114402
-0.095509416
-0.12893344
0.12435867
0.12267616
-0.47650885
-0.00063260679
-0.0026799513
-0.0019308313
-0.66482226
-0.0011828892
-0.0017165967
-0.65918591
0.001650054
0.023376468
-0.023756499
-0.032269366
0.031959075
-0.0005982392
-0.57763662
0.48136329
-0.0056121506
-0.60496536
-0.0074556548
-0.13210549
-0.51143297
-0.023976347
0.019856154
0.64644093
0.025799033
-0.033050133
0.0010131636
-0.13208222
0.10164295
-0.099156301
0.10169367
0.13217784
-0.13200417
-0.099099883
0.023144752
0.00053724643
0.032410145
-0.032705623
-0.023561428
-0.64895243
0.16450238
0.00039355684
-0.11847471
9.9985658e-05
0.11804495
-0.00069962038
-0.00073521319
0.15599861
0.0017642839
0.00080931441
0.015094185
0.007781361
-0.15539355
-0.15412722
-0.14240443
0.0022452448
0.0021455616
0.52714642
-0.015207139
-0.0304511
-0.57204419
-0.0016426391
0.02722262
-0.57938852
0.010917741
0.003626101
0.007319715
-0.15363496
-0.15633844
-0.14455464
-0.14262918
0.0030232073
0.012440543
0.58117895
-4.6123914e-05
-0.14791254
-0.15574065
-0.14319958
0.0035846757
-0.14298556
0.030490415
-0.01239277
0.58304635
-0.61915455
-0.0021255533
0.52714712
-0.015143315
-0.57204304
0.52042492
-0.015018798
-0.64643779
0.62549543
0.0097150456
-0.00169702
-0.59904633
-0.57425608
-0.57199477
-0.018200694
0.014973763
-0.0015850155
0.027182207
-0.011067173
-0.57939112
0.010903053
0.0037141389
-0.57531786
0.0044855642
0.0077790649
-0.15600055
-0.15539627
-0.15412155
-0.14239753
0.0023330138
0.007302242
-0.14454946
-0.15634127
-0.15363948
-0.14262607
0.0030986677
0.58118852
-7.8279792e-05
0.0036451576
-0.14319679
-0.15574364
-0.14791879
-0.1429867
-7.8796503e-06
0.58558913
0.0028343766
0.0036759432
0.63747978
-3.6485868e-05
-0.58559921
-0.57816371
0.0087422727
0.0085570609
0.0028593299
0.0036016639
-0.58124305
0.0044089674
0.004364075
-0.15637803
0.0038687236
0.0038262976
-0.14444333
-0.14444046
-0.14380064
-0.0063139036
-0.0063018707
0.0011390925
-0.14605153
0.0011501757
-0.0011978589
-0.022325661
-0.1319927
0.001289772
-0.0020552988
0.0013471555
-0.13022814
-0.026002228
-0.0010965393
-0.025641893
-0.13015082
0.0011989991
-0.0019511999
0.0010600476
-0.13120954
-0.025334287
-0.13071473
0.00093329794
-0.00065141084
0.00015910801
-0.16397218
0.00032855288
0.14364663
0.00058729364
-0.14547785
0.00026396379
0.13012076
-0.16293366
-3.7126281e-05
0.0015565482
0.00097684977
0.0022855918
0.0014464565
-0.14411683
0.001212387
0.0016954411
0.00069094536
0.00068979
-0.14526298
0.00035270487
0.032986856
-0.16379561
0.00044927147
-0.4942079
-0.032216681
0.039047189
0.032228571
-0.032566351
-0.031860268
0.031962187
-0.032117168
-0.56047393
-0.0003954996
-0.13158111
0.00040643174
3.1369382e-06
-0.13154447
-1.9503819e-05
0.00039623022
0.00016276409
-5.6481639e-05
-0.16475261
-0.00016658442
-0.16522982
0.13093114
0.00018573824
-0.16351401
-3.8820655e-05
3.1791706e-05
2.4749616e-05
-0.14580399
0.00026017511
7.8245389e-05
0.00028085627
-0.14587025
0.00013390422
-0.00020498791
0.00035669841
0.14555436
-0.14561249
0.00018727651
0.00016370646
-0.16457264
0.13004895
0.00019490982
0.00025380433
-0.16219422
0.16181997
0.00052944609
6.8145653e-05
-0.00057888471
0.000480625
0.14375143
0.00068297323
-0.1447574
0.00043390129
0.0017140257
0.0018196066
-0.14308134
0.0011002657
0.0018426839
0.00026805386
0.00055745618
-0.14376433
0.00054045195
0.032286009
-0.16199089
0.00022542253
-0.039000063
0.02601918
-0.032268703
-0.023820528
0.02233847
-0.52558559
-0.023832004
-0.00098848891
-0.49420734
0.025354602
-0.03296655
-0.032200485
0.025658829
-0.51143139
-0.023953905
0.019877414
0.025819263
-0.033030292
0.00051004278
0.032430666
0.023168146
-0.023537708
-0.032684162
0.032250503
-0.032543278
-0.031841395
0.031979832
-0.56047224
-0.032170602
-0.00039160999
0.16379515
2.5397567e-05
-0.13158009
0.00040165772
-0.00039223819
0.16397087
3.2821992e-06
-0.13154286
0.16450145
0.00012111388
-0.11847376
0.11804454
-0.00070054365
-0.0007149646
0.0017635758
0.00082707083
-0.13071401
0.00095205185
0.0019485265
-0.00062985654
0.00015588299
0.00032597022
0.14364464
0.00058788697
-0.14547562
0.0002872712
0.1301183
-0.16293056
-1.0685417e-05
0.0015591227
0.0010027189
0.0022867916
0.0014714937
-0.0010780725
0.0012113909
-0.14411579
0.0017197963
-0.13120942
0.0010932036
0.00044516307
-0.00067010356
0.13015128
-0.00055940834
-0.16181997
0.00047278018
0.0012154741
0.002048357
-0.14375167
0.0017102896
0.0018421837
-0.00068820186
-0.14475705
0.00067880047
0.00045537312
-0.14526152
0.00037531646
-0.00026040231
-0.14555231
0.00042118689
0.00015540672
-3.4167824e-05
-0.14580142
0.00010284018
-0.13092851
5.2363846e-05
0.00014454037
0.00018796712
-9.8940398e-06
-0.0003977261
0.00018683855
-6.0746488e-05
-0.16475084
0.00028084221
-0.14586756
0.00016010834
-0.00022891599
0.00035408088
-0.14561002
0.00021338288
0.00015840838
-0.16457144
0.1300482
0.00027710872
-0.16219309
0.00018479849
8.9312254e-05
0.00052040432
-0.1449202
0.0004567074
0.00021693883
-0.14496013
0.00040470342
0.000266415
-0.00016045569
-0.00030193788
-0.14507759
0.00034922621
0.00023062852
-0.032315929
-0.00028277719
-0.13020129
0.0004464512
-0.49575538
-0.032621387
0.032741242
-0.03197011
0.033149818
-0.00089953113
-0.032574874
0.032941122
0.032439761
-0.032010083
-0.032319552
-0.56153542
0.023870392
-0.023467824
-0.032678803
0.033170779
-0.6498753
0.16525993
0.00044488966
-0.11852241
0.00063392408
-0.00038228029
-0.0002315213
0.13173541
4.4843201e-05
-0.16481918
-9.248561e-05
4.6094995e-05
0.00045565839
-0.14600308
0.00025513391
0.00013538838
-0.00018158772
-0.14610127
0.00020850524
0.00011611656
-0.16375574
-1.0538014e-05
-0.13107316
0.00015228821
0.00023588839
0.00011302021
9.2599591e-05
-3.2197652e-05
-0.16354544
-0.00043488165
-0.16519402
0.13167126
0.00017690873
-0.00018679522
-0.16477506
0.00022300807
0.00043377184
-0.14602031
0.00016561549
0.00012872104
9.7450534e-05
9.1030972e-05
-0.14593929
-0.00016404912
0.0001016058
0.14577296
9.8658063e-05
-0.14571173
0.13172243
-1.0626752e-05
-0.16463753
0.16465291
0.00022706593
0.00021735346
0.13176178
8.8670815e-05
8.8585086e-05
0.00010446415
-0.14573337
0.00018100985
0.00024214858
-0.14582858
0.00015023213
-0.00013086615
-0.14517149
0.000277897
0.00018901342
-0.16231971
0.00010602612
-0.13021054
0.00021616924
0.00034148928
0.00015611732
-6.4036037e-05
-0.16232333
0.14513664
0.00010411923
0.00010835217
-0.14509139
-0.00018192821
0.00019748561
0.00016576448
0.0001454289
-0.00018037553
-0.14443093
0.00020511361
0.14441676
0.00013485334
-0.00015964676
0.14569071
0.00011055934
-0.14569327
0.16409849
9.9259163e-05
-0.13133597
0.00021983992
7.7961146e-05
0.14563709
0.00013841842
0.00025114903
0.14555731
0.00016288234
0.00031025894
-0.0002287744
0.14543728
0.00033208496
0.00017683142
0.13115554
9.3414434e-05
0.16320089
4.9127616e-05
0.00013582796
0.13076527
-0.00038901535
0.00018607401
0.15580677
0.001626925
0.0003454499
0.57843311
0.0077293719
0.0022099858
-0.14411529
-0.14318081
-0.15500034
0.58016503
0.011339003
0.0050824921
-0.57840801
-0.58404857
-0.57925555
0.0083308209
0.0056746632
-0.5800112
0.00429289
0.012363443
0.0024158334
0.0070600214
-0.14500125
-0.1461881
-0.14434331
-0.14312636
-0.0075638094
0.57843057
0.0067994066
0.0011451549
-0.14489701
-0.14520302
-0.14332441
-0.14297104
0.57831297
0.00087397907
-0.15518427
-0.14334871
-0.14307461
-0.15499519
0.010900268
0.00177869
0.012465632
0.001902549
-0.0032493138
0.58324103
-0.5750107
0.0053308707
0.0021537395
0.58590707
0.0047018549
-0.57781885
-0.57659523
-0.57111002
0.0067909365
0.015213189
-0.57565004
0.0029487482
0.0052168832
-0.0055065685
0.003328441
-0.14373484
-0.1446234
-0.14325019
-0.1425371
0.0045423553
0.0027168736
-0.14360358
-0.14491612
-0.14402884
-0.14278856
0.0055690997
0.0016667953
-0.14341613
-0.14382305
-0.14298358
-0.14250756
0.57218352
0.002688961
-0.14272554
-0.1434692
-0.14291757
-0.14205381
0.0051911893
0.0030687072
0.0062844087
-0.0054285912
0.57004131
0.0018065205
-0.56979537
0.0064448362
-0.012446064
-7.8867178e-05
0.58274784
-0.57349776
-0.010843902
0.57931588
-0.577418
-0.0015974824
0.58439192
-0.0026180595
-0.57753093
-0.5757862
-0.57281148
0.0093604166
0.00035434785
-0.5759994
0.010820043
8.2850772e-05
9.6298801e-05
0.0077046929
-0.15483818
-0.14302572
-0.14297136
-0.15473704
7.7976011e-05
0.0076473377
-0.15504499
-0.14313805
-0.15488102
-0.14301484
0.00025831596
0.0068769839
-0.14484524
-0.14498302
-0.14305497
-0.14287758
0.57625905
0.0070093445
0.00011605529
-0.14282863
-0.14290837
-0.14487237
-0.14481205
0.012536784
0.00013334619
0.57877111
0.0058642716
-0.57237215
0.00019468893
-0.5670189
0.00068882965
0.018956689
-0.56772076
0.00034288699
0.0080297716
-0.0019472429
-0.0063393116
-0.14136158
-0.14262658
0.00030846605
0.0074993683
-0.14086813
-0.14238574
-0.0059004568
-0.14212244
-0.14303172
-0.1426114
-0.14144885
0.0060612119
0.00084416431
-0.14329853
-0.14351881
-0.14259968
-0.14228158
-0.14334092
-0.14231234
0.00018354235
-0.14323799
-0.14215025
-0.00025925771
0.0012021477
-0.14283418
0.00012827333
-0.0015778998
-0.00027903596
-0.0015505875
-0.14289484
0.0011666773
-0.0004374193
-0.0015053213
0.0011050913
-0.14296019
-0.00041210722
-0.0014639302
-0.14303504
0.0010575301
-0.00071307597
-0.0014346421
0.0010186622
-0.1431061
-0.00068728679
-0.001412483
-0.1432166
0.00099970671
-0.0018636944
0.0011431497
-0.14329846
-0.0015844084
-0.0013620631
0.0010949038
-0.14308304
-0.13022913
0.0011909593
0.00021692366
-0.00025029355
-0.16199168
0.13199394
9.1995675e-05
-0.0089730307
-0.14671651
0.0013027043
-0.14373392
0.0014063924
0.0017384292
-0.00055043898
0.00054162993
-0.14428357
0.00065046079
-0.14376535
0.00056037813
-0.00021667678
-0.14388828
0.00048016651
0.00031614904
-0.032382713
-0.12959151
0.00028626984
0.032362809
-0.032194885
-0.59154528
-0.023977775
0.024611011
-0.023962952
-0.032173486
0.024624488
-0.12959165
0.00029609068
0.00019691615
0.00032598575
-0.16226897
0.0003513615
-0.00041061927
-0.14393176
0.1438882
0.00031529828
0.00046486723
0.14492132
-0.14496196
0.00024052411
-0.00042335282
0.00046177176
0.00019364778
0.00013134019
-0.00030134778
0.00048840055
0.14388563
0.00023587345
-0.14417722
-4.2545413e-05
0.14508561
0.00017394673
-0.14544011
-0.032175384
0.16320333
0.00011185397
-0.1311576
0.0009777994
0.00013038073
0.54829227
-0.54944735
0.032033403
-0.032284509
-0.032475619
0.53261737
-0.00075251374
-0.66473644
0.00058087308
0.0025160841
-0.53613541
0.0026057529
0.00013866492
-0.00097641147
-0.67090611
-7.7982653e-05
0.54729394
-0.54786256
-0.032305982
0.032015418
0.032065772
-0.032240448
0.00018783094
-0.00048060665
-0.032551378
0.026101637
0.026192774
-0.032474143
0.00028964346
0.02600582
-0.03263178
-0.032516633
0.026129385
0.1558034
-0.13076696
0.00032533889
0.0016208948
0.0021092768
0.0077050018
-0.15500554
-0.14319005
-0.14411305
0.0075058731
0.00075947666
-0.155179
-0.15499962
-0.1433471
-0.1430865
-0.0023237312
0.57839758
0.0010281075
0.0067698658
-0.14489492
-0.1451905
-0.14331198
-0.14296854
0.57999763
0.0070563452
-0.14618164
-0.14500379
-0.1431278
-0.14433628
0.0042049949
0.012349894
0.0017607419
0.012415328
-0.5773694
-0.0017368112
0.012312423
-0.007533741
0.00011279083
0.006791504
-0.14303565
-0.14496237
-0.14483885
-0.14287498
-0.00021900704
-0.14313839
-0.15503764
-0.15488512
-0.14303246
0.57603325
0.0075081394
-0.14303424
-0.15483186
-0.15474365
-0.14300137
-3.2950144e-05
0.010626313
-3.5523702e-05
-0.57623737
0.012281485
-4.1478551e-05
0.0068120333
-0.14289312
-0.14484861
-0.14480852
-0.14284368
-3.4544169e-05
-0.00066542521
0.57217654
0.0061553125
-0.14223193
-0.14327416
-0.14319801
-0.14211023
-4.0060091e-05
-0.0015514692
0.005864202
0.57330694
-0.14253818
-0.14346993
-0.14325922
-0.14222626
-0.0026378367
0.57490544
0.0055751786
-0.14379849
-0.14339602
-0.14247698
-0.1429529
0.57777646
0.0055251642
-0.14490611
-0.1435985
-0.14277819
-0.14401564
0.58584373
0.0031709229
0.0047133677
-0.5831629
-0.5709659
-0.57652558
0.015314547
0.0053260146
0.002002784
-0.0028947404
-0.57199286
0.0029352102
0.0063125036
-0.57559639
0.0052535161
0.003265949
-0.14461236
-0.14323823
-0.14372135
-0.14252041
0.004581482
0.0025820316
-0.14267766
-0.14342942
-0.14287013
-0.14199117
0.0052346183
0.56934562
0.0017147499
-0.14293084
-0.14250022
-0.14199498
-0.14129107
0.0061029744
-0.0053592566
0.0015954558
0.0063748316
-0.00024268261
0.0056727854
-5.0958273e-05
-0.56704342
0.0077819099
-9.2690737e-05
-0.14244935
-0.14111557
-0.1422382
-0.14065385
0.0073470694
-6.3458634e-05
-0.0016295332
-0.00045964746
0.0015175877
-0.14208415
0.00020639543
-0.0011693
-0.00032035232
-0.14250608
0.00013426706
-0.0015291828
-0.14278731
-0.00020723623
8.0264901e-05
-0.0012399712
-0.00014612969
5.2355326e-05
-0.14308856
-0.0025967848
-9.4401009e-05
-0.14342605
2.8659085e-05
-0.0017949411
-6.4216468e-05
1.5377412e-05
-0.14378724
-0.026140596
-3.0832656e-05
-0.1304513
-4.0696218e-06
-0.0026417125
-3.3503441e-05
-0.54466497
-0.032434244
-0.032407864
0.026117875
-2.9216498e-05
-0.12887885
0.000619798
-0.52629343
-2.6051447e-05
-1.9570714
0.13331359
-0.13460445
-0.13016092
-6.9906169e-05
-0.0012478859
0.13589121
-0.13413872
-0.12974247
0.13136581
-5.3730611e-05
-2.4783586
0.0012292924
-0.13178311
0.13353321
0.13629075
-0.13458377
-2.5401342
0.09809517
-0.096756986
-0.13047767
0.13204942
-2.6405148
-0.47533644
0.0011453146
0.00090736787
-0.0011568794
-7.2573798e-05
-0.66474471
0.5273174
0.00077116775
-0.0008874159
-0.6588357
0.00073939119
0.00058683123
-6.2698567e-05
-0.57740106
4.8550885e-05
0.032538073
0.023904599
-0.023681583
-0.032243112
-0.481316
0.0039017537
0.00042967583
-0.0036453388
-0.60477109
0.00011974575
0.023950303
-0.023747026
-0.032308504
0.032616342
-0.57683108
-0.00081240869
5.4879705e-05
0.54942695
0.032665953
0.032782648
-0.032558779
-0.032405188
-0.54903431
0.53206651
-0.00067798028
-0.66487147
0.00059248739
0.00085762318
-0.5349562
0.00089082747
4.2504684e-05
0.00081509207
-0.00011318364
-0.67091986
0.54784016
4.0789241e-05
0.032666314
0.032655286
-0.03241546
-0.032392062
-0.54752505
-0.0001204421
0.00012527594
-0.03226825
0.032658946
0.03268978
-0.032216889
0.032780599
-0.032438818
-0.032250404
0.032673946
-0.00017448889
0.16396229
-0.13135598
9.7797304e-05
0.00025097577
-0.00023500749
-0.13112207
0.00020665808
-0.023546152
-0.11864303
0.00062895671
-0.51351916
-0.023570763
-0.032773001
0.032868136
-0.00045987363
0.023843861
0.00093221533
0.03314644
-0.032703102
-0.023493485
-0.6498693
0.16525948
0.00063594228
-0.11852168
0.00042042064
-0.0002554773
-0.00038042525
0.0001792266
-0.16375761
-4.2284409e-05
-1.773119e-05
0.14600557
-0.14610328
0.00020848907
8.617303e-05
0.13173655
-0.16482029
-8.7419518e-05
2.0568406e-05
0.00046046506
0.00025521369
0.00010733818
-7.8566519e-05
-0.14573596
0.00030482446
0.00015242548
-0.032716744
-0.13176265
0.00028865191
-0.49575605
-0.031992762
-0.032648118
0.032295676
0.033212161
0.032913003
-0.032603358
-0.03203515
0.032415752
-0.03224965
-0.56153323
-0.00043917559
-0.13172273
0.00023374401
0.16465369
0.0001874732
-0.13167178
0.00019469828
0.00043291294
0.00014794111
-0.00018143807
-0.1647743
-0.0001377717
-0.1651915
0.13107377
9.001245e-05
-6.5532663e-05
-0.16354453
0.00014974796
0.00020318361
-0.14602138
9.7130546e-05
0.00016541449
9.711479e-05
5.8361705e-05
-0.1459389