/*--------------------------------*- C++ -*----------------------------------*\
  =========                 |
  \\      /  F ield         | OpenFOAM: The Open Source CFD Toolbox
   \\    /   O peration     | Website:  https://openfoam.org
    \\  /    A nd           | Version:  7
     \\/     M anipulation  |
\*---------------------------------------------------------------------------*/
FoamFile
{
    version     2.0;
    format      ascii;
    class       volVectorField;
    location    "190";
    object      U;
}
// * * * * * * * * * * * * * * * * * * * * * * * * * * * * * * * * * * * * * //

dimensions      [0 1 -1 0 0 0 0];

internalField   nonuniform List<vector> 
25278
(
(120.03097 0.0068774161 0.0053467128)
(120.02774 -0.0021533141 -0.022724647)
(120.02352 -0.0054469051 -0.012184881)
(120.0243 -0.011824308 -0.0082389472)
(119.99984 -0.029102676 -0.0093769049)
(120.03047 -0.02552576 -0.0060790832)
(120.03741 0.0055806306 0.0026760527)
(120.03161 0.0056935135 0.005609992)
(120.03487 0.0038858808 0.0064248037)
(120.05201 0.0067653203 0.0029592861)
(120.04465 0.0019248304 -4.4969174e-05)
(120.03663 0.0026069693 0.00089798452)
(120.033 -0.0094397226 -0.011958158)
(120.02026 -0.019148774 -0.022299741)
(119.88056 -0.060496283 -0.093456922)
(120.02299 0.0048378393 -0.012262151)
(120.02705 0.002482592 -0.022171526)
(119.92008 -0.071913465 -0.11732542)
(119.8605 -0.021755113 -0.14768739)
(119.959 -0.028297504 -0.13960977)
(120.01596 -0.0056808707 -0.068629501)
(120.02088 -0.021714656 -0.058005322)
(120.02323 -0.02651303 -0.041722195)
(120.04412 -0.015012449 -0.024374291)
(120.07046 -0.03079637 -0.036610018)
(120.0454 -0.022723831 -0.019849064)
(120.02416 -0.039823715 -0.032509446)
(120.02464 -0.058722145 -0.065374843)
(119.99425 -0.054302018 -0.096542844)
(120.03158 -0.051947201 -0.092607457)
(120.02763 -0.049401272 -0.11752811)
(119.97624 -0.05067648 -0.12814619)
(119.93813 -0.10634325 -0.19744651)
(119.96982 -0.10417536 -0.13810031)
(120.02987 -0.09473445 -0.13906303)
(120.00408 -0.087036257 -0.16761682)
(120.03421 -0.082868627 -0.16305445)
(120.02564 -0.077473063 -0.19143351)
(119.98828 -0.079979954 -0.19708566)
(119.9603 -0.11921014 -0.2464145)
(119.98062 -0.12644995 -0.20316265)
(120.02286 -0.12071122 -0.20145075)
(120.00827 -0.11518121 -0.24098774)
(120.06275 -0.10590623 -0.21747744)
(120.06599 -0.066810466 -0.16971905)
(120.0776 -0.034783676 -0.087270619)
(120.05393 -0.0090952556 -0.034286326)
(120.06149 -0.0029358607 -0.04026022)
(120.07884 -0.019909974 -0.099437437)
(120.01635 -0.029119718 -0.13370053)
(120.0092 -0.0064421578 -0.13557373)
(119.94777 -0.0054108995 -0.13913759)
(119.87132 -0.015610916 -0.2371866)
(119.89989 -0.069129077 -0.23958732)
(119.97465 -0.065350518 -0.21216364)
(120.01514 -0.06434946 -0.21052743)
(120.00674 -0.045042594 -0.22473071)
(119.96173 -0.043666868 -0.22536924)
(119.91844 -0.07241263 -0.29513079)
(119.93837 -0.10226637 -0.2734981)
(119.98864 -0.10095936 -0.27575925)
(119.97497 -0.07448173 -0.29758487)
(119.95766 -0.04346817 -0.3060105)
(119.99843 -0.025490559 -0.22882766)
(119.95189 -0.023993955 -0.2246253)
(119.94692 -0.0033873549 -0.22413299)
(119.99445 -0.004133935 -0.22912258)
(119.95053 -0.0097469516 -0.3059516)
(119.89056 -0.0090206266 -0.2933408)
(119.89933 -0.040647035 -0.29464567)
(119.81171 -0.062267785 -0.371243)
(119.84862 -0.1074834 -0.37145164)
(119.88259 -0.14604063 -0.33474036)
(119.91568 -0.16804564 -0.29530913)
(119.95 -0.16515723 -0.23340193)
(120.00367 -0.1635464 -0.17295631)
(120.02997 -0.13469226 -0.1070496)
(120.03241 -0.091027932 -0.063937003)
(120.02263 -0.060307147 -0.031188416)
(119.98257 -0.064379788 -0.035654467)
(119.95567 -0.057296012 -0.031311612)
(119.87934 -0.095354109 -0.072082241)
(119.91947 -0.11844543 -0.084662258)
(119.85654 -0.16687227 -0.038396077)
(119.9678 -0.07980848 -0.01596523)
(119.93543 -0.068385083 -0.013203061)
(119.81135 -0.12952012 -0.031652523)
(119.57636 -0.19712801 -0.09567103)
(119.69172 -0.14890864 -0.11967211)
(119.79752 -0.105383 -0.11083784)
(119.81424 -0.12452392 -0.13087089)
(119.71118 -0.13025372 -0.16794314)
(119.69357 -0.10961549 -0.14664652)
(119.50407 -0.18590691 -0.18999026)
(119.53471 -0.20607515 -0.21123432)
(119.71008 -0.16932776 -0.14148275)
(119.74049 -0.18949705 -0.15617354)
(119.83672 -0.13289476 -0.13991839)
(119.86564 -0.15657294 -0.16452462)
(119.77336 -0.17616087 -0.22814183)
(119.74094 -0.14406552 -0.18895044)
(119.56699 -0.24395781 -0.25011649)
(119.61588 -0.28966523 -0.29669789)
(119.77375 -0.22729734 -0.18916119)
(119.67165 -0.31300945 -0.15133059)
(119.63489 -0.25501452 -0.12243559)
(119.60099 -0.22393689 -0.11237648)
(119.22859 -0.34331776 -0.19948402)
(119.18569 -0.30254997 -0.18212191)
(118.83601 -0.35044895 -0.095752338)
(119.46603 -0.20487003 -0.037981714)
(119.49072 -0.22011771 -0.043894296)
(118.87455 -0.3824131 -0.10744141)
(118.90187 -0.45491552 -0.13043256)
(119.27413 -0.41446981 -0.22884421)
(119.34688 -0.50019882 -0.28242799)
(118.94183 -0.56143111 -0.17680902)
(119.56006 -0.30683643 -0.063474657)
(119.5275 -0.24574508 -0.047396127)
(119.5126 -0.25720585 0.020157225)
(119.85 -0.1770716 0.026471459)
(119.96706 -0.083452112 0.0081231622)
(120.00006 -0.031279529 0.0060404302)
(119.66594 -0.12950516 0.15770152)
(119.46416 -0.21228326 0.19709291)
(119.13734 -0.33364047 0.17589874)
(118.80667 -0.36783345 0.061659537)
(119.45454 -0.2132423 0.016840811)
(119.80418 -0.13829154 0.020209097)
(119.93386 -0.071937535 0.0059232353)
(119.95342 -0.063638473 0.028737924)
(119.98171 -0.070951787 0.0331345)
(119.91181 -0.13257643 0.08496062)
(119.86999 -0.10807949 0.071846553)
(119.66812 -0.16791243 0.12049781)
(119.55227 -0.21563052 0.087323815)
(119.57414 -0.24537307 0.10380174)
(119.47775 -0.2297993 0.018482735)
(118.83977 -0.40455903 0.066190898)
(119.17399 -0.37927407 0.19315039)
(119.21225 -0.45629131 0.22381393)
(118.85937 -0.48325591 0.08157008)
(118.89054 -0.59785477 0.11740163)
(119.54265 -0.32221693 0.03147937)
(119.6395 -0.3405143 0.14416856)
(119.60653 -0.27863203 0.11440017)
(119.71464 -0.21247497 0.15864047)
(119.68463 -0.19060626 0.14304402)
(119.49163 -0.23535571 0.21916445)
(119.68242 -0.15238371 0.18010033)
(119.86895 -0.073823256 0.10268314)
(119.77992 -0.12195989 0.11586753)
(119.79638 -0.14287014 0.13701139)
(119.81954 -0.15183467 0.14664127)
(119.91153 -0.085957188 0.12721849)
(119.84872 -0.17759793 0.17301591)
(119.74637 -0.25346309 0.19337648)
(119.56616 -0.32572518 0.3088864)
(119.276 -0.54760538 0.28052189)
(118.34158 -0.70033167 0.65171065)
(116.24985 -0.76117977 0.6242492)
(116.40218 -0.71968768 -0.74656289)
(118.48989 -0.62186833 -0.63023761)
(119.33398 -0.27029258 -0.49473309)
(119.66965 -0.13377685 -0.30095051)
(119.63559 -0.10602294 -0.24122575)
(119.53225 -0.022759521 -0.21085132)
(119.56012 -0.034363837 -0.2721128)
(118.90181 -0.13220582 -0.52123563)
(118.87931 -0.093088477 -0.41120324)
(119.26674 -0.21676795 -0.40569047)
(118.3595 -0.51476601 -0.51927527)
(116.36274 -0.48393698 -0.52687966)
(116.22079 -0.66659175 -0.66543557)
(105.0714 -1.7475658 -1.6210739)
(107.09351 -1.3029159 -1.202297)
(116.47861 -0.58435963 -0.55149282)
(116.35434 -0.6191701 0.45668151)
(107.01203 -1.408781 1.2835062)
(104.94449 -1.9150777 1.6984904)
(115.98751 -0.81332082 0.67284732)
(116.16482 -0.60969917 0.55871657)
(118.23409 -0.5810976 0.53315744)
(119.19429 -0.2473878 0.43180542)
(119.52049 -0.27675032 0.26019396)
(119.71252 -0.16711783 0.20220237)
(119.74419 -0.20138507 0.2432138)
(119.62943 -0.15617188 0.32715618)
(119.25732 -0.30303217 0.52117852)
(118.80062 -0.18124371 0.56585394)
(118.78924 -0.13412941 0.45670034)
(119.48479 -0.044362977 0.24294607)
(119.84419 -0.035006586 0.16833655)
(119.59658 -0.12685393 0.26542454)
(119.51008 -0.059820343 0.30548497)
(119.61697 -0.072480795 0.38366527)
(118.88115 -0.25049646 0.73043399)
(115.83356 -1.055712 1.0398466)
(102.46057 -2.6032228 2.2416906)
(102.61782 -2.3380892 -2.1930202)
(116.12063 -0.90691933 -1.0093435)
(118.98705 -0.19529111 -0.68146435)
(119.66391 -0.046339191 -0.34410631)
(119.75999 -0.14994171 -0.35080654)
(119.84884 -0.19103525 -0.25777982)
(119.92363 -0.15864521 -0.16722632)
(119.96968 -0.13385592 -0.11580177)
(119.9947 -0.095200895 -0.065921754)
(119.97593 -0.13306113 -0.064930033)
(120.02844 -0.12155835 -0.064457743)
(120.00411 -0.16856371 -0.10250864)
(119.93733 -0.20023855 -0.12235007)
(119.98014 -0.20257084 -0.14175762)
(120.02236 -0.20062208 -0.13651029)
(120.0344 -0.16388514 -0.098678547)
(120.02543 -0.19672405 -0.094798228)
(119.98762 -0.20273569 -0.096860762)
(119.95935 -0.25050137 -0.13663309)
(120.00736 -0.24452723 -0.13307679)
(120.06195 -0.22058002 -0.12472981)
(120.071 -0.17842971 -0.12327484)
(120.09366 -0.098958204 -0.080250595)
(120.06834 -0.066787748 -0.0471962)
(120.05711 -0.035780203 -0.016770946)
(120.08617 -0.030255446 -0.022108209)
(120.13021 -0.043109434 -0.039019551)
(120.12629 -0.079269774 -0.05108689)
(120.11126 -0.044785502 -0.025684572)
(120.08009 -0.090465175 -0.04931208)
(120.06913 -0.14335942 -0.086352026)
(120.10366 -0.11255137 -0.069192959)
(120.12126 -0.14324058 -0.10119388)
(120.12202 -0.18023059 -0.10530392)
(120.10821 -0.14113179 -0.070134799)
(120.06636 -0.17471459 -0.084429622)
(120.06095 -0.19823532 -0.075539715)
(120.08186 -0.11036926 -0.035632754)
(120.06763 -0.049025874 -0.010875267)
(120.01858 -0.07968059 -0.015324142)
(119.95827 -0.15166891 -0.043268388)
(120.01701 -0.14593941 -0.045016624)
(119.97376 -0.22293544 -0.08317455)
(119.89772 -0.25348407 -0.087844391)
(119.93712 -0.28373712 -0.12135412)
(119.98735 -0.28592256 -0.12069234)
(120.01463 -0.22124444 -0.082751157)
(120.00568 -0.2425391 -0.06410888)
(119.95992 -0.24346918 -0.062118174)
(119.91671 -0.31308875 -0.093337101)
(119.97337 -0.31499237 -0.095917889)
(119.95485 -0.33370795 -0.065514433)
(119.9967 -0.25397996 -0.04391286)
(120.00924 -0.158543 -0.020414736)
(119.94499 -0.16254483 -0.018651062)
(119.86601 -0.26800827 -0.035600703)
(119.94954 -0.24961728 -0.041915234)
(119.8965 -0.32221779 -0.062221384)
(119.88441 -0.33246447 -0.029025216)
(119.94227 -0.25835067 -0.018730196)
(119.99117 -0.26340987 -0.020119489)
(119.9454 -0.3446991 -0.030354098)
(120.02033 -0.33015755 -0.030867999)
(120.02883 -0.3166311 -0.066311574)
(120.04075 -0.29455669 -0.094155401)
(120.05101 -0.26398294 -0.11580435)
(120.12112 -0.21801966 -0.099547203)
(120.10883 -0.16165489 -0.063262848)
(120.10994 -0.18126437 -0.051810991)
(120.05611 -0.21935113 -0.05935727)
(120.05077 -0.2319104 -0.04211321)
(120.08294 -0.1232287 -0.018329258)
(120.13454 -0.059837392 -0.012766567)
(120.12411 -0.052832772 -0.017447478)
(120.14356 -0.11317718 -0.04628728)
(120.13786 -0.098812777 -0.051156904)
(120.15486 -0.047332627 -0.028595067)
(120.13796 -0.034938937 -0.026216205)
(120.17462 -0.044321317 -0.039061201)
(120.15623 -0.098357937 -0.073290454)
(120.16767 -0.12395467 -0.075362687)
(120.1943 -0.062913219 -0.043307729)
(120.21186 -0.076507603 -0.042276336)
(120.16507 -0.053880709 -0.025200137)
(120.17676 -0.06071131 -0.023743824)
(120.15026 -0.1277353 -0.039930852)
(120.18384 -0.17347736 -0.065340813)
(120.17703 -0.15116639 -0.073955695)
(120.17175 -0.21215317 -0.11517639)
(120.16949 -0.19117136 -0.11473322)
(120.16433 -0.16744511 -0.11257436)
(120.17831 -0.11696613 -0.093415331)
(120.17467 -0.047439332 -0.058365772)
(120.12883 -0.027197126 -0.048030185)
(120.08386 -0.012008803 -0.032238856)
(120.06676 -0.035998364 -0.068623736)
(120.09309 -0.067976512 -0.10372682)
(120.06851 -0.070483074 -0.14289951)
(120.10234 -0.053111127 -0.11232596)
(120.10694 -0.052069709 -0.13639116)
(120.12219 -0.085519681 -0.17752556)
(120.12106 -0.084259515 -0.1449006)
(120.07123 -0.10702357 -0.17980861)
(120.06607 -0.14938985 -0.21970393)
(120.10791 -0.12603892 -0.13633698)
(120.13136 -0.11789475 -0.17661234)
(120.10563 -0.13236162 -0.22882955)
(120.07327 -0.14584942 -0.25108496)
(120.03988 -0.15396644 -0.26481326)
(119.97626 -0.17546507 -0.3042403)
(120.00303 -0.16692648 -0.23693855)
(119.98326 -0.23469137 -0.28927342)
(119.91298 -0.23437205 -0.27862278)
(119.87308 -0.24210454 -0.36078817)
(119.95286 -0.24941593 -0.3736541)
(119.90562 -0.36241866 -0.4486515)
(119.94996 -0.31580951 -0.3247579)
(119.98324 -0.28331417 -0.2469924)
(120.00272 -0.23366026 -0.18156795)
(119.94972 -0.23049774 -0.17935736)
(119.84924 -0.25624601 -0.20481554)
(119.9131 -0.27301217 -0.24597114)
(119.87444 -0.35965798 -0.25677369)
(119.91545 -0.29722692 -0.18493619)
(119.97581 -0.30554129 -0.19265218)
(119.95367 -0.37185977 -0.26455461)
(119.90781 -0.44356548 -0.37426488)
(119.81158 -0.41700756 -0.34042347)
(119.87045 -0.29912752 -0.30754958)
(119.70842 -0.34766792 -0.35490632)
(119.80897 -0.32847439 -0.42111248)
(119.72624 -0.47866712 -0.48585749)
(119.8558 -0.51493558 -0.52289631)
(119.98964 -0.45736919 -0.46654592)
(120.00137 -0.38865709 -0.44207779)
(120.01386 -0.31781454 -0.39662576)
(120.02239 -0.26628537 -0.36556276)
(120.02951 -0.21701139 -0.32927162)
(120.03344 -0.18503846 -0.30029303)
(120.0739 -0.17421198 -0.28544203)
(120.06748 -0.1747641 -0.32119268)
(120.0679 -0.14377449 -0.28040421)
(120.02821 -0.15113977 -0.2955489)
(120.02358 -0.1850953 -0.33882229)
(120.01689 -0.22607023 -0.37700389)
(120.06627 -0.21861592 -0.36249661)
(120.0746 -0.20804303 -0.31506521)
(120.06406 -0.21492167 -0.27220396)
(120.1534 -0.17349035 -0.22543295)
(120.11707 -0.1900483 -0.29027808)
(120.11116 -0.1589193 -0.25996755)
(120.14937 -0.13670336 -0.22831307)
(120.13805 -0.1128595 -0.19886158)
(120.13971 -0.11316786 -0.22463949)
(120.10297 -0.13038364 -0.25684228)
(120.10694 -0.15917683 -0.29379049)
(120.14933 -0.13955898 -0.26001854)
(120.16216 -0.17624846 -0.2974399)
(120.16111 -0.16425353 -0.25493574)
(120.17911 -0.20273135 -0.2869636)
(120.12703 -0.23326612 -0.32512387)
(120.07682 -0.25355021 -0.35209785)
(120.06863 -0.26381041 -0.40771428)
(120.0112 -0.27588094 -0.4247496)
(119.99812 -0.33756587 -0.46720466)
(120.06491 -0.33047994 -0.45463749)
(120.07447 -0.30879177 -0.38532739)
(120.05223 -0.3048316 -0.31480181)
(120.06384 -0.26551804 -0.22811419)
(120.06563 -0.21581651 -0.16455817)
(120.13097 -0.17222601 -0.13413686)
(120.15294 -0.21757322 -0.18836056)
(120.1162 -0.2871809 -0.20760539)
(120.11014 -0.25854415 -0.17704937)
(120.10478 -0.22889351 -0.15099951)
(120.07242 -0.25141418 -0.16388571)
(120.03917 -0.26526226 -0.17151034)
(120.03279 -0.29946535 -0.20171204)
(120.07302 -0.28437399 -0.19152141)
(120.06639 -0.32260656 -0.19341416)
(120.06671 -0.28344861 -0.16292403)
(120.02714 -0.29880163 -0.16975305)
(120.02284 -0.3404964 -0.20305992)
(120.01688 -0.37722116 -0.24333851)
(120.02928 -0.3270068 -0.23282718)
(120.0741 -0.31246109 -0.22459641)
(120.07675 -0.34759706 -0.2689507)
(120.02272 -0.36155354 -0.28068423)
(120.01221 -0.42299039 -0.29185617)
(120.06891 -0.40549078 -0.28083636)
(120.0658 -0.3623157 -0.23661912)
(120.11284 -0.33501113 -0.21937871)
(120.10553 -0.29496909 -0.17886677)
(120.10167 -0.25974203 -0.15031457)
(120.13849 -0.22746434 -0.1340695)
(120.13734 -0.19882855 -0.13237537)
(120.14826 -0.2267012 -0.15594821)
(120.14778 -0.26106715 -0.16046774)
(120.16072 -0.29666325 -0.19715634)
(120.16005 -0.25149334 -0.1832092)
(120.17829 -0.28112011 -0.22114363)
(120.12654 -0.31993903 -0.2499072)
(120.12203 -0.37575603 -0.26167373)
(120.17871 -0.33398158 -0.23584457)
(120.22939 -0.28102614 -0.2002535)
(120.2221 -0.23609307 -0.18624525)
(120.21963 -0.1454432 -0.12811498)
(120.25818 -0.058050271 -0.060753531)
(120.20526 -0.04804558 -0.047675166)
(120.20479 -0.091565477 -0.068348332)
(120.189 -0.12743437 -0.088487042)
(120.20976 -0.14605854 -0.10466433)
(120.18074 -0.18931273 -0.13172976)
(120.18473 -0.21753565 -0.13631015)
(120.2174 -0.17201609 -0.11184471)
(120.19757 -0.14874245 -0.093013174)
(120.21669 -0.10699114 -0.070688717)
(120.22916 -0.060032424 -0.044840408)
(120.21453 -0.048562734 -0.040560022)
(120.2409 -0.055155204 -0.047262776)
(120.22911 -0.10192769 -0.078657693)
(120.24053 -0.11919047 -0.08206901)
(120.25536 -0.068930841 -0.053329463)
(120.28643 -0.075472224 -0.061816518)
(120.26662 -0.058179189 -0.052152967)
(120.25313 -0.112681 -0.089878864)
(120.23095 -0.16147796 -0.12176577)
(120.19703 -0.21144298 -0.15393208)
(120.20447 -0.24941319 -0.16706916)
(120.24213 -0.19536794 -0.13631141)
(120.27348 -0.21975063 -0.16309749)
(120.26156 -0.1802529 -0.14676862)
(120.2881 -0.12580533 -0.10693527)
(120.30336 -0.062089418 -0.060052451)
(120.32437 -0.081322284 -0.071835372)
(120.30539 -0.15202619 -0.11668889)
(120.2696 -0.13638746 -0.098661912)
(120.28394 -0.15960839 -0.1076755)
(120.25162 -0.13782726 -0.088435663)
(120.22449 -0.11944869 -0.072246531)
(120.20293 -0.16595773 -0.093866796)
(120.22474 -0.19750391 -0.11683747)
(120.18847 -0.24822573 -0.14196073)
(120.14727 -0.2963169 -0.16373303)
(120.13813 -0.25182225 -0.1326313)
(120.0978 -0.28633393 -0.14750718)
(120.05978 -0.31171926 -0.15785042)
(120.01812 -0.32499596 -0.16266595)
(119.94463 -0.36602044 -0.17598131)
(119.88293 -0.34261 -0.16514024)
(119.76277 -0.36157311 -0.16859501)
(119.82831 -0.42373072 -0.24626388)
(119.9082 -0.46305813 -0.26054541)
(119.86618 -0.54134698 -0.22653396)
(119.91986 -0.41421652 -0.14518429)
(119.84969 -0.38754477 -0.12979284)
(119.77123 -0.49728153 -0.20470277)
(119.63025 -0.632103 -0.29389404)
(119.7355 -0.51039108 -0.34174118)
(119.47725 -0.59392021 -0.35836804)
(119.59736 -0.60075246 -0.5284481)
(119.73455 -0.69967447 -0.58189914)
(119.83283 -0.57695514 -0.38832646)
(119.74602 -0.70701831 -0.3618933)
(119.57519 -0.90102301 -0.58924378)
(119.39115 -0.79478638 -0.50570919)
(119.04936 -0.83404503 -0.4653597)
(119.47804 -0.66564833 -0.22919201)
(119.7014 -0.51200498 -0.14621907)
(119.81194 -0.39854234 -0.086762118)
(119.66569 -0.37755758 -0.075781863)
(119.78951 -0.41500556 -0.042363168)
(119.86583 -0.46206298 -0.047442786)
(119.88522 -0.44335364 -0.099208098)
(119.79769 -0.59093042 -0.16398221)
(119.75516 -0.62341809 -0.079275621)
(119.65206 -0.54296801 -0.073399655)
(119.35901 -0.73637559 -0.12336556)
(119.0439 -0.71616749 -0.2435411)
(118.66501 -0.9990077 -0.30443082)
(118.84879 -1.2324408 -0.32461511)
(119.21136 -1.0744955 -0.54220877)
(119.58347 -0.80001531 -0.28489899)
(119.46826 -0.87007071 -0.14745491)
(119.71411 -0.83495682 -0.16410215)
(119.76322 -0.80697421 -0.23130423)
(119.81799 -0.75822009 -0.28178968)
(119.87682 -0.71577647 -0.31926393)
(119.92001 -0.65278948 -0.34494972)
(119.9532 -0.59512822 -0.35803295)
(119.97788 -0.52516847 -0.35594742)
(120.00023 -0.46359001 -0.35222346)
(120.01466 -0.39099292 -0.33076936)
(120.07495 -0.37899163 -0.32278149)
(120.07436 -0.4234364 -0.38769024)
(120.00227 -0.4345418 -0.39969014)
(119.9899 -0.51675054 -0.42464888)
(120.06684 -0.50010327 -0.41314041)
(120.06628 -0.45023763 -0.34616648)
(120.13096 -0.42041711 -0.32341667)
(120.13189 -0.35094889 -0.29921751)
(120.16736 -0.25035753 -0.26239778)
(120.13194 -0.28378406 -0.35824422)
(120.19196 -0.24851404 -0.31720524)
(120.19688 -0.2724925 -0.38084177)
(120.17971 -0.21520128 -0.33726701)
(120.12241 -0.24304304 -0.37855421)
(120.11391 -0.2000408 -0.33554107)
(120.10881 -0.20121648 -0.37796295)
(120.10286 -0.15979334 -0.32836923)
(120.09928 -0.12636811 -0.28010088)
(120.12176 -0.077372662 -0.20817594)
(120.10756 -0.043792139 -0.15146905)
(120.06074 -0.056669673 -0.18776273)
(120.05621 -0.039833423 -0.2018048)
(120.10871 -0.031564947 -0.16366023)
(120.12027 -0.05993012 -0.22902682)
(120.0424 -0.071558398 -0.27697148)
(120.05219 -0.094950893 -0.25394705)
(120.01909 -0.14302717 -0.31863752)
(119.94467 -0.15636256 -0.35857497)
(119.91922 -0.12266558 -0.39892437)
(119.85783 -0.20404059 -0.53109403)
(119.9046 -0.24258096 -0.45972175)
(119.82416 -0.22903085 -0.41936891)
(119.76181 -0.18192274 -0.48531926)
(119.68865 -0.11789988 -0.48615457)
(119.78447 -0.13539863 -0.56791544)
(119.88475 -0.0740123 -0.41636688)
(119.86923 -0.021132512 -0.41944982)
(119.79424 -0.017458388 -0.37248708)
(119.64453 -0.038383847 -0.49681888)
(119.74559 -0.043261081 -0.57938996)
(119.41859 -0.096156405 -0.82748296)
(119.53754 -0.25480674 -0.78586273)
(119.72207 -0.34166992 -0.70454344)
(119.82292 -0.37364295 -0.57868876)
(119.72613 -0.32717624 -0.51040052)
(119.4595 -0.34598719 -0.59219714)
(119.60691 -0.27136266 -0.62674604)
(119.34936 -0.48738467 -0.79690492)
(119.58652 -0.51976153 -0.60547355)
(119.72254 -0.57128863 -0.70583907)
(119.53454 -0.5721229 -0.90587287)
(119.10938 -0.51322196 -1.0721398)
(118.95856 -0.43809298 -0.81690725)
(119.43998 -0.1990106 -0.64528264)
(119.32103 -0.075798785 -0.69036238)
(118.52808 -0.22625424 -0.95370572)
(118.6946 -0.24313916 -1.1938382)
(119.16217 -0.28551853 -1.1834665)
(119.48037 -0.19156308 -0.98260712)
(119.674 -0.12283155 -0.80121444)
(119.80555 -0.087557913 -0.67532265)
(119.88011 -0.059406917 -0.55977516)
(119.93239 -0.043928211 -0.47825526)
(119.96226 -0.030798447 -0.39448944)
(120.02496 -0.0094482979 -0.29056251)
(120.04856 -0.0031860412 -0.20838856)
(120.0793 -0.0044578369 -0.10246874)
(120.12547 8.1355104e-05 -0.041624236)
(120.11793 -0.0027287524 -0.043630323)
(120.10687 -0.01212238 -0.042331049)
(120.12423 -0.035268889 -0.079372979)
(120.13491 -0.010978756 -0.035256046)
(120.15082 -0.010992832 -0.043281327)
(120.13541 -0.033148554 -0.094400588)
(120.16687 -0.054722093 -0.12142749)
(120.15529 -0.056118873 -0.10039124)
(120.17265 -0.021946182 -0.046468013)
(120.19172 -0.022469861 -0.060545804)
(120.20862 -0.018219809 -0.066470483)
(120.16012 -0.0059601484 -0.044600895)
(120.14081 -0.026702305 -0.10338066)
(120.14695 -0.019546537 -0.11055835)
(120.1703 -0.0036017268 -0.043976504)
(120.22218 -0.013870237 -0.069390148)
(120.18327 -0.039715079 -0.15503872)
(120.1764 -0.050473104 -0.14117026)
(120.173 -0.091806879 -0.20567008)
(120.17045 -0.09290486 -0.18834375)
(120.16481 -0.092421986 -0.16768908)
(120.17831 -0.076326918 -0.12188816)
(120.2043 -0.029974635 -0.053166781)
(120.20407 -0.047022596 -0.09192214)
(120.18893 -0.067507032 -0.12766379)
(120.19791 -0.0701653 -0.1457771)
(120.21848 -0.088144196 -0.17085608)
(120.21038 -0.08323847 -0.14798354)
(120.18172 -0.11149853 -0.19120475)
(120.18624 -0.11397707 -0.21646987)
(120.20615 -0.14422481 -0.25027654)
(120.19816 -0.13366762 -0.21529392)
(120.22006 -0.11149093 -0.15438489)
(120.25802 -0.042439966 -0.067837966)
(120.25356 -0.066871852 -0.11695371)
(120.22912 -0.056482642 -0.10400421)
(120.24004 -0.024492721 -0.057199004)
(120.21287 -0.018953867 -0.048886152)
(120.22738 -0.020948151 -0.056940821)
(120.21617 -0.047216743 -0.10395185)
(120.24085 -0.057150777 -0.11784246)
(120.25445 -0.027685375 -0.067504587)
(120.28615 -0.03395743 -0.075965856)
(120.26622 -0.028190299 -0.062473752)
(120.30331 -0.034733429 -0.069746619)
(120.28876 -0.083066039 -0.13321654)
(120.26252 -0.12451624 -0.18723407)
(120.23181 -0.099903912 -0.16548609)
(120.2436 -0.11153355 -0.19614972)
(120.27504 -0.13739431 -0.22350161)
(120.23089 -0.17712847 -0.28463857)
(120.22315 -0.16611265 -0.24258412)
(120.24202 -0.20469309 -0.26877196)
(120.25529 -0.16556762 -0.18006173)
(120.30799 -0.064607072 -0.081319863)
(120.31753 -0.10069053 -0.14686639)
(120.2873 -0.15412705 -0.2079286)
(120.30888 -0.17472283 -0.25351869)
(120.25726 -0.22551164 -0.32286775)
(120.28718 -0.27732982 -0.36328297)
(120.27078 -0.25411404 -0.30340301)
(120.21104 -0.30726658 -0.35867074)
(120.14032 -0.3467736 -0.40123332)
(120.07369 -0.37527577 -0.43180334)
(120.06486 -0.39881773 -0.50691066)
(119.98713 -0.41177407 -0.52262185)
(119.96782 -0.49630314 -0.5634868)
(120.05495 -0.49148007 -0.5535335)
(120.06868 -0.44888038 -0.45939034)
(120.05673 -0.54433525 -0.50422613)
(119.97022 -0.55584218 -0.50754478)
(119.94209 -0.60464739 -0.61457696)
(120.04233 -0.59296562 -0.60480211)
(120.13938 -0.56107554 -0.57602214)
(120.14232 -0.46151756 -0.5238366)
(120.13787 -0.37139036 -0.47532143)
(120.13047 -0.30576603 -0.42571208)
(120.12277 -0.31765795 -0.4914974)
(120.11623 -0.25189977 -0.43223878)
(120.05411 -0.2689039 -0.46256389)
(120.05485 -0.21605531 -0.40618005)
(120.05806 -0.17262674 -0.35755739)
(120.06106 -0.13758785 -0.30543763)
(120.05513 -0.12801563 -0.32942059)
(120.00879 -0.13196935 -0.34391338)
(120.00048 -0.17061097 -0.40314231)
(120.01172 -0.18016476 -0.37219852)
(120.00166 -0.22080925 -0.41652398)
(119.98617 -0.21272384 -0.45747717)
(120.04399 -0.21036213 -0.44597411)
(120.05092 -0.16445857 -0.38641328)
(120.09801 -0.15307512 -0.35673674)
(120.09651 -0.11801512 -0.30322946)
(120.14064 -0.10429685 -0.26670966)
(120.13962 -0.11035775 -0.24553663)
(120.14912 -0.14116654 -0.29159675)
(120.14884 -0.13685483 -0.31788185)
(120.14562 -0.12911265 -0.34513579)
(120.13913 -0.096189742 -0.28363188)
(120.09203 -0.10762342 -0.3213442)
(120.0482 -0.11522978 -0.3482436)
(120.0006 -0.11741182 -0.36047341)
(119.98915 -0.097691299 -0.37733955)
(120.04031 -0.097536548 -0.36500192)
(120.02934 -0.13063322 -0.43677158)
(120.03992 -0.15070977 -0.41548635)
(119.98811 -0.1545743 -0.4286358)
(119.97365 -0.13188787 -0.4506439)
(119.94652 -0.16961611 -0.52055538)
(119.96813 -0.19500626 -0.48950035)
(120.02763 -0.19522533 -0.48296312)
(120.00999 -0.17385732 -0.51446375)
(119.98919 -0.23129598 -0.60782285)
(120.0157 -0.25386574 -0.56386374)
(120.03992 -0.26723416 -0.51455486)
(119.9724 -0.27367701 -0.52874321)
(119.99279 -0.27715692 -0.47403454)
(119.97319 -0.33984325 -0.52682347)
(120.04654 -0.33718108 -0.52132501)
(120.02509 -0.34094363 -0.58751748)
(119.94444 -0.33990435 -0.59487969)
(119.91733 -0.43752332 -0.68120691)
(119.95617 -0.42620034 -0.59443322)
(120.0408 -0.41892042 -0.58728697)
(120.01279 -0.43232341 -0.66980016)
(120.10558 -0.4136044 -0.63750471)
(120.10734 -0.32431448 -0.55753957)
(120.10546 -0.25269834 -0.48396949)
(120.10178 -0.19745446 -0.41729341)
(120.1605 -0.17784678 -0.37364507)
(120.16214 -0.17895513 -0.336733)
(120.1795 -0.22531582 -0.38735532)
(120.17579 -0.22908374 -0.4362873)
(120.16472 -0.22512449 -0.48539219)
(120.15428 -0.17062328 -0.409659)
(120.09084 -0.18659874 -0.45458563)
(120.09124 -0.14266346 -0.38536644)
(120.08227 -0.1246588 -0.40766985)
(120.08664 -0.091493959 -0.33842219)
(120.13689 -0.083024268 -0.30019609)
(120.14051 -0.1145676 -0.36698643)
(120.14403 -0.15627593 -0.44265218)
(120.07593 -0.16801243 -0.48769576)
(120.06361 -0.2259293 -0.58078215)
(120.08833 -0.2443184 -0.53408455)
(120.08045 -0.32044002 -0.62379744)
(119.9881 -0.33030649 -0.65207817)
(119.90561 -0.324523 -0.65002673)
(119.94663 -0.25671467 -0.57096721)
(119.9135 -0.22951078 -0.61546041)
(119.87236 -0.19178845 -0.64091742)
(119.91963 -0.13801834 -0.53841069)
(119.95658 -0.10602507 -0.46426044)
(119.97813 -0.077498675 -0.3853306)
(120.03132 -0.043055547 -0.28860603)
(120.0513 -0.023195504 -0.20697327)
(120.10724 -0.018163941 -0.16882454)
(120.10644 -0.0021892298 -0.1707428)
(120.11203 -0.0077579459 -0.24545938)
(120.11563 -0.036828975 -0.24171212)
(120.18556 -0.024653566 -0.16422703)
(120.14875 -0.010242983 -0.11326153)
(120.17476 0.00015468775 -0.042256994)
(120.17765 0.0020379285 -0.040993374)
(120.15006 -0.00061245332 -0.11428541)
(120.18526 -0.0042017986 -0.16763835)
(120.23291 0.00063641491 -0.071236801)
(120.23019 -0.0076110237 -0.070789057)
(120.24966 -0.032533745 -0.14243553)
(120.2473 -0.03911599 -0.1364421)
(120.24046 -0.043088573 -0.12825694)
(120.23457 -0.046054416 -0.12147304)
(120.22402 -0.046830716 -0.11235474)
(120.20349 -0.069263741 -0.15912227)
(120.21124 -0.066884706 -0.17311637)
(120.17749 -0.087766684 -0.2237964)
(120.19385 -0.11543929 -0.26611237)
(120.19037 -0.11771812 -0.24318157)
(120.22627 -0.090855676 -0.19197261)
(120.23382 -0.090294493 -0.21035918)
(120.26305 -0.061401302 -0.14392757)
(120.25217 -0.060917621 -0.13172493)
(120.26827 -0.029417583 -0.073885608)
(120.23727 -0.020589894 -0.060115214)
(120.24979 -0.020832461 -0.063284325)
(120.28162 -0.030882953 -0.079557443)
(120.29262 -0.031653407 -0.084925097)
(120.25753 -0.01987245 -0.065055571)
(120.26642 -0.018669879 -0.068007272)
(120.3016 -0.031050834 -0.091281883)
(120.27756 -0.056758581 -0.16888281)
(120.27142 -0.060844054 -0.15659829)
(120.23866 -0.087499812 -0.22959947)
(120.215 -0.06271957 -0.18422038)
(120.17835 -0.081449319 -0.23822428)
(120.17929 -0.071181376 -0.2530738)
(120.21911 -0.055588123 -0.19619668)
(120.24124 -0.080161732 -0.24675579)
(120.19319 -0.099418015 -0.31027207)
(120.1947 -0.11058077 -0.28999021)
(120.21449 -0.14750799 -0.34923419)
(120.21513 -0.15118384 -0.31673284)
(120.21166 -0.14982955 -0.28420556)
(120.25384 -0.11616519 -0.22340583)
(120.26253 -0.11895922 -0.24973602)
(120.29787 -0.15510208 -0.29411369)
(120.28796 -0.14756844 -0.25861791)
(120.23784 -0.18962746 -0.32848517)
(120.24078 -0.1960466 -0.37204959)
(120.23733 -0.19624404 -0.41702967)
(120.30214 -0.15853581 -0.33188752)
(120.26741 -0.11813545 -0.27657083)
(120.26795 -0.1126225 -0.30342575)
(120.20934 -0.13763901 -0.38023368)
(120.22601 -0.18927238 -0.46212976)
(120.14642 -0.21229848 -0.53250836)
(120.11925 -0.18634567 -0.57841862)
(120.12862 -0.1333117 -0.47311423)
(120.13218 -0.095998314 -0.38812317)
(120.1327 -0.068498722 -0.31231145)
(120.08003 -0.074676906 -0.35033138)
(120.03114 -0.07834925 -0.3764314)
(120.02317 -0.054889126 -0.38480782)
(119.96826 -0.053838463 -0.39306725)
(119.94268 -0.075945179 -0.47490544)
(120.00251 -0.07673224 -0.46687022)
(120.01392 -0.10605413 -0.45568915)
(120.07097 -0.10315556 -0.4280843)
(120.06016 -0.074656272 -0.44120013)
(120.07346 -0.051989495 -0.35967618)
(120.12807 -0.048182783 -0.32229121)
(120.12377 -0.070292053 -0.40216939)
(120.11591 -0.041940053 -0.41212901)
(120.1243 -0.028350539 -0.32730228)
(120.06865 -0.030522123 -0.36391505)
(120.01742 -0.031556793 -0.38824877)
(120.01444 -0.0048916059 -0.38759956)
(119.95886 -0.0046848056 -0.3933511)
(119.92731 -0.0089308458 -0.47745526)
(119.98746 -0.0093214667 -0.47326603)
(119.99194 -0.044463027 -0.47353014)
(120.05108 -0.044213518 -0.44962022)
(120.04667 -0.0087999468 -0.45024453)
(120.06599 -0.0041465519 -0.36379939)
(120.12207 -0.0036183032 -0.32766102)
(120.11201 -0.0081458278 -0.41334852)
(120.09023 -0.015027996 -0.51568707)
(120.09761 -0.061842539 -0.51238562)
(120.11265 -0.1017622 -0.49613172)