/*--------------------------------*- C++ -*----------------------------------*\
  =========                 |
  \\      /  F ield         | OpenFOAM: The Open Source CFD Toolbox
   \\    /   O peration     | Website:  https://openfoam.org
    \\  /    A nd           | Version:  7
     \\/     M anipulation  |
\*---------------------------------------------------------------------------*/
FoamFile
{
    version     2.0;
    format      ascii;
    class       volScalarField;
    location    "320";
    object      omega;
}
// * * * * * * * * * * * * * * * * * * * * * * * * * * * * * * * * * * * * * //

dimensions      [0 0 -1 0 0 0 0];

internalField   nonuniform List<scalar> 
24866
(
434.20719
442.17437
443.5124
505.56771
565.84453
564.66482
560.06414
566.03451
566.72817
559.48512
562.59959
562.6378
559.58489
566.79204
565.96693
560.29261
564.13953
566.09635
564.31665
562.74008
555.39845
567.91584
581.73025
575.30954
561.73229
551.89267
563.17227
576.25423
575.04446
557.21446
565.05176
564.60969
564.60879
565.05188
557.23628
575.05178
576.31316
563.23001
551.83269
561.6632
575.2921
581.73149
567.92266
555.39971
562.80242
564.2788
566.18355
564.06175
560.34662
565.82941
566.89904
559.54703
562.60064
562.63096
559.6271
566.67694
566.10135
559.95554
564.81559
565.71432
569.42397
566.27558
569.48325
569.94375
561.60869
565.43058
572.32046
571.15237
561.83263
562.14221
562.16778
561.87948
571.17229
572.32299
565.45646
561.51731
569.49894
569.26298
565.25684
567.58815
567.18246
555.71149
557.48594
563.75533
565.82117
573.04391
565.90128
558.90124
567.05242
574.0208
565.85373
559.24787
564.18105
564.59328
563.87378
562.0127
560.41776
562.89272
562.02094
563.34169
563.04232
563.45539
562.95417
563.67615
564.13955
564.14619
563.89682
564.29899
563.60857
562.7316
557.07876
568.82916
568.1697
565.10465
561.2221
563.13202
563.39946
563.73323
564.15976
564.40813
564.35682
563.99566
564.35465
563.78899
563.14694
562.7453
560.97006
561.89412
562.28837
563.12588
563.93706
564.52581
564.84598
564.68592
564.74778
564.54368
564.16195
563.90008
563.40092
563.61161
561.22543
557.08312
568.82813
568.1679
550.79379
551.16058
510.68085
503.39789
504.39011
504.39031
503.39755
496.1925
499.75577
555.68978
555.36827
501.56539
502.18447
491.07699
500.06222
499.26482
487.5528
483.11718
493.51224
501.39162
504.11796
505.58836
502.86301
498.15935
503.98401
504.41254
495.64831
496.10192
496.04848
495.5215
504.31898
504.00665
498.02863
503.25206
511.76481
512.62923
552.01908
552.37716
510.07648
495.50651
510.97811
504.26462
498.68556
562.24365
563.28354
562.24457
563.34109
562.69046
560.91053
561.87373
562.26373
563.09447
563.89342
564.46725
564.77701
564.84909
564.91789
564.75068
564.41295
564.15186
564.18632
564.3024
565.85871
562.73361
501.68238
504.2684
542.84347
555.70229
499.7317
496.19621
439.73717
441.98275
442.57115
442.57098
441.9811
439.73172
438.55186
439.85765
439.84047
435.85592
439.07134
438.71022
433.93816
430.94179
437.8242
440.91833
442.58519
443.42008
441.95832
441.45289
442.21841
442.70416
439.62923
439.60927
439.59513
439.54409
442.59918
442.17577
441.3444
392.59121
392.81286
393.31502
393.29374
392.85633
442.23646
503.35298
497.99557
504.07359
504.27829
495.68416
496.09224
496.0531
495.59524
504.41172
503.8781
498.22407
502.81128
505.65735
504.10321
501.4421
493.52532
483.13113
539.47565
560.30053
552.86152
499.29721
500.09291
491.09048
502.16394
501.52052
555.41512
544.09755
511.05705
506.22947
492.75984
508.86635
513.24666
512.41194
555.92957
574.04007
567.06412
558.89894
559.25139
565.81919
564.60039
564.14797
564.36459
564.69169
564.36268
564.53104
564.46954
564.18174
563.67628
563.07765
563.03358
563.33084
563.67826
563.89788
563.94379
563.79836
563.46728
564.00585
563.68707
563.88388
563.7579
557.49732
562.02772
562.96788
562.90914
563.05544
563.15666
563.13324
563.10148
563.0817
563.0347
563.34191
562.69753
562.2741
562.29626
562.75403
563.35563
562.03997
565.27429
560.43768
555.73039
567.22182
567.58237
550.16314
511.07319
509.15275
549.69523
506.84733
508.91709
493.12145
432.49851
440.95765
437.84043
430.9525
433.95698
487.60549
487.14663
503.39253
503.7194
544.0171
541.10881
504.89414
490.62347
508.61084
429.59182
438.72097
439.06897
435.84997
439.85378
439.86808
438.55197
389.88394
391.1913
392.46029
392.60325
392.60315
392.45906
391.1879
389.88443
390.39582
390.48679
388.40934
390.18175
389.83715
387.28175
385.68433
390.06302
391.84426
392.71152
393.24266
392.71944
392.69069
392.91773
393.27318
391.79746
391.91527
391.87185
391.69732
393.17831
392.8572
352.33614
352.29918
352.28419
352.50971
352.49992
352.31605
352.31376
392.59823
441.33387
442.23458
442.62571
439.6464
439.6066
439.6077
439.60991
442.68276
442.14219
441.47884
441.93086
443.46431
442.58746
392.71739
391.87252
390.07815
385.69504
387.298
389.84758
390.18345
388.4072
390.49329
390.39898
350.27901
350.00295
351.11497
351.8803
351.95202
351.95209
351.8794
351.11262
350.00276
350.27642
350.37481
349.19423
350.30429
350.02745
348.41647
347.44988
350.35869
351.53822
352.10629
352.46407
352.25665
352.38941
352.40201
352.64571
351.88412
351.9878
351.95587
351.80504
352.56206
318.97393
318.82911
318.89072
318.76298
318.86068
318.85699
318.78712
318.90785
318.86818
319.01333
352.60405
393.21651
391.80333
391.91511
391.88584
391.74986
393.24281
392.85835
392.69637
392.70038
393.26791
352.4775
352.11177
351.55805
350.37129
347.45932
348.42922
350.03592
350.30625
349.19339
350.37958
317.25115
317.13599
317.00109
317.90468
318.35884
318.40982
318.40986
318.35814
317.90297
317.00057
317.13385
317.24754
316.57057
317.28682
317.03973
315.93997
315.34944
317.35394
318.16125
318.57421
318.83
318.76688
318.97063
318.89295
319.04543
318.66239
318.74484
318.71943
318.59857
290.90349
291.06903
290.98545
291.08783
290.9134
290.9453
290.94464
290.93216
291.10496
291.01858
291.10438
290.95306
318.66128
351.88526
351.98968
351.96934
351.84638
352.61234
352.35246
352.38393
352.2412
318.75371
318.8365
318.57844
318.17521
317.3641
315.35748
315.95001
317.04664
317.28881
316.57047
289.30258
289.69113
289.57292
289.53197
290.26297
290.52934
290.56973
290.56972
290.52877
290.26168
289.53129
289.57111
289.68834
289.30229
289.76652
289.53957
288.75544
288.40518
289.83576
290.40461
290.72322
290.91869
290.92909
291.15679
291.04415
291.1299
290.95559
291.027
291.00646
267.72635
267.6367
267.6914
267.64875
267.7616
267.5809
267.57861
267.5794
267.59575
267.77758
267.67673
267.72241
267.67641
267.74452
291.02865
318.74706
318.73121
318.6313
319.0143
318.85196
318.96
291.14448
290.91785
290.9214
290.72634
290.41463
289.84397
288.41197
288.76344
289.54525
289.76845
266.64153
266.33975
266.56055
266.45308
266.47152
267.06402
267.22369
267.25759
267.25754
267.2232
267.06301
266.4708
266.45152
266.55834
266.33923
266.63972
266.43338
265.85923
265.6623
266.71557
267.13386
267.39141
267.54984
267.59827
267.81977
267.70111
267.74324
267.67977
267.74318
247.9542
247.94007
247.86242
247.86272
247.84511
247.95271
247.78736
247.76803
247.76946
247.79934
247.96713
247.86878
247.88967
247.89479
247.95536
247.94785
267.73492
291.01632
290.92997
291.10219
291.01051
267.67355
267.80755
267.58877
267.5506
267.39378
267.1413
266.7223
265.66809
265.86573
266.4381
246.80022
246.98214
246.78756
246.9125
246.82315
246.87584
247.35683
247.45895
247.48847
247.48842
247.45854
247.35602
246.87512
246.82181
246.91069
246.78691
246.98045
246.79624
246.36872
246.26768
247.06289
247.3857
247.60116
247.73495
247.80196
248.00101
247.89098
247.907
247.89863
230.86768
230.91564
230.90373
230.83706
230.81327
230.80969
230.90495
230.76341
230.73646
230.73812
230.77325
230.91778
230.82981
230.83661
230.86372
230.91666
230.91074
230.85297
247.88102
267.65864
267.71915
247.88626
247.86832
247.98965
247.79397
247.73476
247.60304
247.39143
247.0685
246.27267
246.37409
229.57425
229.89512
230.05519
229.93103
230.0011
229.93137
230.0012
230.39209
230.46387
230.49011
230.49005
230.46352
230.39142
230.00052
229.9302
229.99958
229.93031
230.05363
229.89172
229.56974
229.5273
230.13944
230.3993
230.58353
230.69932
230.77387
230.94475
230.84948
230.85119
216.00031
216.02619
216.06712
216.057
216.00011
215.9677
215.97117
216.05198
215.93517
215.90577
215.90746
215.94337
216.06333
215.98841
215.98791
216.02232
216.068
216.06331
216.01384
215.9851
230.83342
230.83072
230.9345
230.76714
230.6987
230.58509
230.40387
230.14421
229.53164
214.91405
214.92164
215.16542
215.30472
215.22705
215.26564
215.21371
215.28984
215.60798
215.66343
215.68701
215.68695
215.66313
215.60742
215.2892
215.21269
215.26436
215.22631
215.30327
215.16248
214.91779
214.91024
215.38875
215.60447
215.76415
215.86576
215.94152
216.08469
216.00559
202.93917
202.93114
202.95893
202.99361
202.98495
202.93653
202.90293
202.90939
202.97618
202.88157
202.85257
202.85419
202.8885
202.98622
202.92428
202.92049
202.95522
202.99438
202.99064
202.94849
202.91807
202.92597
215.98993
216.07559
215.93582
215.86497
215.76547
215.60821
215.39286
202.40219
202.02304
202.01042
202.19714
202.31756
202.27072
202.29134
202.25412
202.33019
202.58979
202.6358
202.65716
202.65711
202.63555
202.58932
202.32961
202.25323
202.29024
202.26998
202.31622
202.19458
202.00709
202.01966
202.39863
202.58136
202.72099
202.81094
202.88436
203.0031
191.38868
191.33794
191.32942
191.35575
191.38507
191.3776
191.33639
191.30487
191.31213
191.36649
191.29047
191.26337
191.26488
191.29641
191.37538
191.32508
191.32018
191.35227
191.38574
191.38274
191.34688
191.31814
191.32671
191.38156
202.99505
202.87948
202.8101
202.72212
202.58448
191.02073
190.86439
190.56058
190.53685
190.68101
190.78472
190.75839
190.76891
190.74328
190.81585
191.02854
191.06843
191.08793
191.08788
191.06821
191.02813
190.81532
190.7425
190.76796
190.75767
190.78349
190.67876
190.53395
190.5576
190.86127
191.0181
191.14104
191.22117
191.29034
180.92227
181.004
180.96424
180.9563
180.97987
181.00461
180.99814
180.96302
180.93482
180.94179
180.98567
180.92473
180.90024
180.90163
180.92988
180.99358
180.95315
180.94824
180.97663
181.00522
181.00278
180.97228
180.94653
180.9546
180.9977
180.91857
191.28612
191.22032
191.14201
180.78732
180.67985
180.54456
180.29841
180.26906
180.38122
180.4704
180.45769
180.46278
180.44599
180.51345
180.68861
180.72405
180.742
180.74195
180.72386
180.68828
180.51299
180.44532
180.46196
180.45702
180.46928
180.37924
180.26653
180.29576
180.54183
180.67761
180.7865
180.85821
171.53607
171.59472
171.66307
171.63219
171.62526
171.64572
171.6666
171.66095
171.63097
171.60638
171.61261
171.6479
171.599
171.57739
171.57864
171.6035
171.65496
171.62265
171.6182
171.64274
171.66715
171.66516
171.6392
171.61676
171.62385
171.65746
171.59144
171.53523
180.85738
180.91754
180.99003
180.79284
180.83995
180.94064
180.44706
180.54863
180.69153
180.75135
180.67672
180.60254
171.32588
171.17861
171.24039
171.38553
171.41743
171.43406
171.434
171.41728
171.38527
171.24003
171.17809
171.18809
171.18578
171.18908
171.11169
171.02331
171.05485
171.25634
171.37468
171.47162
163.04757
163.10567
163.15902
163.21662
163.19283
163.18699
163.20443
163.22201
163.21701
163.19137
163.17022
163.1756
163.20398
163.16465
163.14587
163.14704
163.16866
163.21034
163.18455
163.18071
163.20164
163.22248
163.22087
163.19877
163.17953
163.18552
163.21159
163.15608
163.10485
163.04809
171.47228
171.37658
171.25871
171.05716
171.02548
171.11337
171.19003
171.18634
171.18872
162.79919
162.79404
162.85015
162.97122
163.00014
163.01562
163.01563
163.00009
162.97114
162.85004
162.79383
162.7989
162.79766
162.79509
162.72851
162.65873
162.69062
162.85725
162.96093
155.31486
155.39257
155.44507
155.49338
155.54232
155.52408
155.51924
155.53397
155.54876
155.5443
155.52229
155.5042
155.50879
155.53168
155.49992
155.48384
155.48492
155.50354
155.53748
155.51686
155.51359
155.53133
155.54916
155.54784
155.529
155.51262
155.51759
155.53773
155.49064
155.44417
155.39282
155.31597
162.9625
162.85923
162.69252
162.66044
162.72977
162.79569
162.7979
155.17221
155.17328
155.1718
155.22258
155.32433
155.35063
155.36515
155.36523
155.35084
155.32466
155.22306
155.17233
155.17383
155.1728
155.16646
155.10907
155.05356
155.08464
155.22368
148.2548
148.33502
148.40485
148.45233
148.49591
148.53794
148.52397
148.51991
148.53236
148.54483
148.5408
148.52177
148.50624
148.51021
148.52884
148.50296
148.48934
148.49035
148.50628
148.53418
148.51758
148.51474
148.52983
148.54515
148.54407
148.52793
148.51395
148.5181
148.53366
148.49324
148.4512
148.4046
148.33533
148.25509
155.22508
155.08583
155.05444
155.10945
155.16621
148.20034
148.20868
148.20996
148.21108
148.25709
148.34334
148.36728
148.38103
148.38132
148.3681
148.34469
148.25903
148.21345
148.21253
148.21136
148.20266
148.15297
148.10832
148.13788
141.7659
141.86469
141.93479
141.99745
142.04028
142.07938
142.11609
142.10525
142.10165
142.11243
142.12307
142.11937
142.10268
142.08903
142.09264
142.10805
142.08647
142.07508
142.07605
142.08958
142.11306
142.09947
142.09682
142.10995
142.12331
142.12243
142.10842
142.09619
142.09982
142.11195
142.07656
142.03859
141.99618
141.93347
141.86269
141.76249
148.13762
148.10741
148.15137
141.76905
141.81148
141.82116
141.82273
141.82547
141.86744
141.9414
141.963
141.97633
141.9771
141.96527
141.94512
141.87278
141.83213
141.83001
141.82871
141.81861
141.77513
141.73843
135.87082
135.89541
135.9787
136.03845
136.09418
136.13244
136.16715
136.2002
136.19144
136.18794
136.19793
136.20734
136.2039
136.18881
136.17608
136.17966
136.19277
136.17373
136.16436
136.1653
136.17671
136.19755
136.18609
136.18334
136.19547
136.2075
136.20678
136.19424
136.18287
136.18632
136.19603
136.16386
136.12961
136.09087
136.03385
135.97198
135.88537
135.85747
141.73355
141.83954
141.89449
141.95959
141.98345
141.95925
141.92868
136.03737
135.93907
135.97787
136.04232
136.06132
136.07479
136.07656
136.06675
136.05115
135.99052
135.95499
135.95323
135.95226
135.94134
135.90248
130.47223
130.44221
130.4624
130.53131
130.57899
130.62728
130.6606
130.69075
130.72209
130.71443
130.71064
130.72118
130.73015
130.72691
130.71255
130.69935
130.7032
130.71482
130.69615
130.68856
130.68948
130.69905
130.71946
130.70934
130.7062
130.71872
130.73024
130.72967
130.71778
130.7059
130.70954
130.71769
130.68653
130.65564
130.6201
130.56802
130.51533
130.43929
130.412
130.43742
135.8868
135.92385
135.93414
135.93577
130.48173
130.48417
130.52075
130.57818
130.59386
130.60834
130.61209
130.6056
130.5972
130.54794
130.51858
130.51945
130.51979
130.50842
125.4683
125.43231
125.39965
125.41252
125.46624
125.49816
125.53735
125.56477
125.58981
125.62185
125.61444
125.61008
125.62308
125.63258
125.62945
125.6148
125.59926
125.60363
125.61439
125.59327
125.58719
125.58809
125.59612
125.6189
125.60951
125.60577
125.6206
125.63264
125.63221
125.61993
125.60567
125.60975
125.61702
125.58404
125.55613
125.5234
125.47571
125.4334
125.36552
125.33846
125.36241
125.39221
130.47024
130.48059
125.40212
125.40188
125.40156
125.43677
125.48935
125.50041
125.51717
125.52445
125.52368
125.52694
125.49045
125.46979
125.47665
125.47992
120.79505
120.78327
120.74457
120.70404
120.70452
120.73976
120.75009
120.77697
120.79685
120.81598
120.8514
120.8437
120.83885
120.85659
120.86776
120.86476
120.84871
120.82862
120.8334
120.84366
120.81693
120.81195
120.81282
120.8197
120.84801
120.83898
120.83477
120.85416
120.86785
120.86754
120.85374
120.83485
120.83928
120.84604
120.80801
120.7826
120.75235
120.70881
120.67883
120.61749
120.59058
120.61568
120.64367
120.65275
120.65003
120.64469
120.67894
120.72829
120.73296
120.75343
120.76637
120.77514
120.79653
120.77655
120.76932
120.78665
116.43158
116.44743
116.43557
116.39133
116.33751
116.31775
116.32776
116.3091
116.31893
116.32927
116.34182
116.38289
116.37523
116.37074
116.39515
116.40906
116.40627
116.38794
116.36155
116.36599
116.37549
116.34071
116.33622
116.33704
116.3433
116.37953
116.37111
116.36718
116.39292
116.40909
116.4089
116.39271
116.36736
116.37133
116.37726
116.33154
116.30789
116.27987
116.24059
116.22476
116.16971
116.14369
116.17199
116.19902
116.20692
116.20091
116.18876
116.22151
116.26803
116.26471
116.28986
116.31081
116.33424
116.38161
116.38521
116.39896
112.37266
112.42395
112.44816
112.43636
112.38538
112.31454
112.2626
112.23494
112.17998
112.16742
112.16689
112.17341
112.22015
112.21516
112.21347
112.24433
112.26093
112.25851
112.23825
112.20609
112.20816
112.21491
112.17274
112.16814
112.16886
112.17502
112.21844
112.21256
112.21095
112.24255
112.26088
112.26077
112.24244
112.21101
112.21233
112.21521
112.1621
112.13914
112.11304
112.07857
112.07658
112.03056
112.0083
112.03908
112.06402
112.07014
112.06135
112.043
112.07204
112.11342
112.10233
112.13154
112.16187
112.20546
112.28634
112.32615
108.64528
108.74559
108.81498
108.84325
108.83139
108.77791
108.69119
108.5858
108.4952
108.39714
108.35937
108.34944
108.35181
108.39999
108.4055
108.41174
108.44451
108.46188
108.45989
108.44007
108.40722
108.40246
108.39993
108.35671
108.35284
108.35343
108.35851
108.4027
108.40584
108.41085
108.44345
108.46184
108.46166
108.44333
108.41073
108.40468
108.39768
108.34308
108.32089
108.29637
108.26616
108.27401
108.24796
108.23675
108.26167
108.27751
108.28033
108.27231
108.25361
108.2738
108.30188
108.28685
108.31785
108.35577
108.4225
108.54411
105.18658
105.40838
105.5993
105.67989
105.69879
105.68669
105.64427
105.5487
105.35379
105.14136
104.98499
104.92933
104.91734
104.91456
104.95147
104.98828
105.0082
105.03226
105.0577
105.05843
105.03184
105.00705
104.99049
104.95964
104.93108
104.93577
104.93611
104.93219
104.9614
104.99276
105.00927
105.03206
105.05772
105.05962
105.03399
105.00891
104.99038
104.95438
104.91379
104.89989
104.87655
104.84379
104.85133
104.8798
104.89411
104.88804
104.87764
104.88069
104.87745
104.87078
104.87104
104.86169
104.85527
104.88828
104.92607
105.00889
101.87364
102.13092
102.69665
103.07292
103.09368
103.07143
103.06086
103.0616
103.02624
102.64716
102.08995
101.85227
101.75025
101.74795
101.80846
101.73036
101.94146
101.94699
101.94273
102.08063
102.07971
101.94289
101.94946
101.94909
101.74806
101.83983
101.79471
101.79482
101.84021
101.74894
101.95003
101.94923
101.94299
102.08052
102.08028
101.94391
101.94953
101.94703
101.74084
101.82171
101.75822
101.73568
101.75558
101.68804
101.96381
101.88646
101.81249
101.7979
101.92072
101.8133
101.82546
101.83234
101.64979
101.7546
101.72071
101.7473
99.355259
99.393596
99.660565
100.62761
101.3824
101.19903
101.13628
101.12463
101.16957
101.34113
100.58304
99.625681
99.371131
99.363472
99.358009
99.392956
99.373265
99.465019
99.480327
99.487828
99.492752
99.493477
99.491358
99.48582
99.475644
99.397429
99.432599
99.429926
99.430571
99.431567
99.39602
99.474796
99.485711
99.487298
99.492629
99.494071
99.491114
99.487178
99.474286
99.387077
99.41844
99.390136
99.389167
99.349432
99.400913
99.915638
99.874752
99.48459
99.389638
99.381059
99.381535
99.378456
99.363655
99.302694
99.336121
99.335495
97.092204
97.077997
97.156563
97.425594
97.346646
97.205509
97.202216
97.166382
97.197876
97.295003
97.419746
97.114225
97.117152
97.088296
97.204549
97.282612
97.186261
97.164713
97.382379
97.273772
97.275858
97.388821
97.170139
97.199943
97.316711
97.24368
97.19916
97.203877
97.236758
97.31823
97.194938
97.169492
97.379786
97.272813
97.276753
97.387336
97.166387
97.206583
97.294533
97.259965
97.132421
97.231637
97.138734
97.39018
97.002502
96.925213
97.308136
97.349641
97.195052
97.299856
97.096032
97.07774
97.24146
97.110833
97.058006
97.099181
97.218928
97.114417
97.072361
97.119118
97.168987
97.118844
97.060277
97.074793
97.164951
97.268808
97.147258
97.147368
97.308603
97.154886
96.961779
96.855554
97.01881
97.230326
97.265708
97.064445
96.870966
96.955253
97.15918
97.347221
97.091106
97.107998
99.370937
99.320227
99.760398
99.836253
101.25928
99.950365
99.862445
99.488792
99.880233
101.18904
99.815963
99.298753
99.32665
99.799896
99.759314
99.363554
97.250239
97.155257
97.207961
97.195261
97.195614
97.11203
97.248383
97.37556
97.116625
97.186469
99.358561
99.322367
99.765403
101.19722
99.831355
99.914202
99.840259
99.410475
99.482773
100.23535
101.38846
100.10389
100.09484
100.23918
99.882054
99.23745
99.249762
99.854225
100.1327
100.08567
101.34952
99.816789
99.897095
99.437373
97.239585
97.30621
97.21509
97.290143
97.057713
96.980449
99.372606
99.874006
99.957622
101.35241
99.896037
99.372907
99.840235
99.468041
101.90165
102.11137
101.9028
101.69036
101.92926
101.79852
102.01381
105.0515
108.52993
108.59516
108.45787
104.95981
105.04876
105.07222
104.98447
108.52079
108.60335
108.4373
104.99187
105.02781
108.49446
108.52205
105.04192
101.98529
99.408696
99.38016
99.295912
99.437564
99.237032
99.17566
101.74097
101.9099
101.97914
101.87754
102.01806
102.03862
99.335069
99.275966
99.067004
98.866072
99.021198
99.256235
99.553904
102.03673
101.84762
102.07233
102.37862
102.75982
100.7045
99.735183
99.387711
99.322587
99.303087
99.36309
99.693087
100.66386
100.59854
100.58048
100.59214
100.62822
102.8306
102.83299
102.46974
102.45573
99.660571
97.23845
97.110072
97.03227
96.875169
97.382784
97.44662
97.436869
97.366149
96.849321
96.752365
96.367218
96.397629
96.405423
96.373081
96.774564
96.870156
97.411334
97.477169
97.476025
97.409574
96.870189
96.773749
96.379057
96.411023
96.410864
96.872031
97.102234
97.215475
97.065504
97.126479
97.356895
97.272343
97.274331
97.360941
97.126447
97.070127
97.214694
97.101494
96.872949
96.417179
96.410207
96.37886
96.778382
96.880443
97.443574
97.520676
97.546688
97.476314
96.918449
96.815607
96.395494
96.426384
96.421555
96.392448
96.780924
97.365038
97.540355
98.028262
99.43999
101.34164
102.57412
102.55552
101.29466
99.385977
97.992333
97.526895
97.354288
96.782432
97.054657
97.132055
97.251244
97.234197
97.183767
97.254229
97.399697
96.87422
97.51586
97.866812
99.34824
100.81881
101.98322
103.85556
105.0397
106.39259
106.88204
106.8923
106.41723
105.07927
103.91667
102.05263
100.88051
99.414349
102.0414
103.42092
105.57699
106.96202
108.62869
109.24006
109.22973
108.59982
106.91619
105.51352
103.34309
101.9716
103.80431
101.19268
99.014062
98.435695
98.550006
97.460948
97.457192
97.250964
97.1822
97.233092
97.248926
97.129322
97.048524
96.864099
97.391395
98.424831
98.546869
99.281389
99.286342
102.38148
106.26453
104.95406
106.83317
105.46974
107.34536
109.28965
111.1539
112.13428
112.14125
111.18964
109.3479
107.41094
105.5595
103.88718
101.27747
105.04634
106.93782
109.33068
112.11134
114.55201
115.92659
115.92236
114.52244
112.04826
109.24749
111.07807
108.47937
109.0874
106.74681
106.75159
102.37948
106.27691
108.48546
109.09326
112.03948
112.03008
115.85392
114.48067
117.51678
119.29134
119.29597
117.54128
114.53895
111.16364
108.59324
106.36999
102.48961
106.84736
109.20727
112.12361
115.92382
119.2959
121.2794
121.27622
119.26607
119.27689
115.86172
114.49772
111.09677
109.26493
106.84161
104.96048
101.17897
99.001027
97.849058
97.502517
97.336837
96.769292
96.378582
96.677178
96.771573
97.507009
97.967057
99.318462
101.94301
103.80192
105.46556
107.35137
109.30108
112.07916
114.54958
117.55418
119.32569
121.29335
121.3024
119.31495
115.93024
112.13044
109.20269
106.84402
102.47641
106.36542
108.59058
111.18
114.56817
117.58335
119.33937
115.95552
115.95159
112.14725
111.1768
108.57796
106.89354
105.49359
103.31327
101.95291
100.79742
99.331551
101.22116
103.83694
105.01564
106.36588
106.85226
109.20416
109.20619
112.15748
111.19183
114.58037
112.12582
109.33841
106.9294
105.03305
101.24803
103.85874
105.53554
107.40484
109.34424
106.92417
108.5968
106.37693
106.85888
102.45652
102.45137
99.324996
99.039464
97.86116
97.514403
97.345261
96.678202
96.652151
97.660503
97.607899
98.484496
98.61667
99.781997
99.874039
99.877053
99.789718
98.628461
98.497559
97.62182
96.38498
96.691254
96.662151
96.689738
97.362564
97.536311
98.498428
98.631928
98.656507
98.532224
97.570813
97.397933
96.707686
96.678368
96.709461
96.812377
97.573387
97.937671
99.132804
99.428049
99.403673
99.097063
97.898358
97.536294
96.790447
97.570378
97.620212
98.508419
98.645308
99.846684
99.944384
99.970691
99.879073
98.677934
98.541506
97.639629
97.689765
98.544939
97.641988
97.592539
98.468791
99.665641
98.741402
100.02922
101.11941
100.25241
103.28203
102.08702
100.24464
98.853462
98.43344
98.507734
99.625435
98.640933
97.52992
97.89126
99.027795
98.432274
98.549441
99.308698
99.293155
98.538263
98.412592
99.004066
97.854656
99.361907
100.83336
101.99881
103.87265
105.037
101.24314
99.357814
97.980044
97.504318
97.333183
97.499901
98.611962
99.759131
99.852002
99.863907
99.776273
101.004
99.922626
98.69682
100.21671
101.68187
103.28074
104.55907
103.98899
102.67139
104.03546
102.65999
103.98617
104.69644
107.55202
106.88657
104.87347
105.81444
107.65838
108.68059
108.45871
107.66337
106.44219
108.15856
106.42275
104.83836
102.01727
106.86567
108.65462
107.54001
108.43568
107.64268
105.78173
107.6393
109.48847
107.34403
103.18992
100.13456
100.11831
100.99057
99.90298
98.663812
99.598067
98.480696
98.404142
98.814476
100.17603
101.99708
103.17876
107.7272
107.73168
110.03756
109.72299
111.56834
110.62273
111.02391
110.03115
112.95136
111.98167
110.09251
111.01598
109.04971
111.02707
110.11212
113.02247
114.1472
116.79809
112.98194
110.64863
109.7555
107.39873
107.78036
110.07123
111.60748
111.05784
110.06519
109.52603
112.01013
112.96931
113.96436
118.27022
116.98316
115.56251
118.67478
115.54687
116.79353
112.96207
113.94844
118.27197
116.98191
120.49963
121.99566
120.09123
121.98264
120.50184
122.56652
124.15821
125.91759
123.63179
119.71826
114.97816
113.97964
111.95736
109.88631
111.04932
113.2722
116.73316
113.25123
111.94719
115.40846
118.18633
119.64406
115.31573
116.40733
121.24962
122.75095
117.28162
113.90379
105.87042
104.63462
102.84148
101.41307
99.941158
101.26531
103.01306
104.11672
104.09218
101.08839
100.22617
99.996452
98.703931
99.631223
98.43527
98.823069
100.19696
102.0436
103.26465
107.76905
110.06204
111.5951
109.74671
107.37591
109.49894
110.05453
111.04827
110.63696
108.41364
107.62294
105.77873
104.81824
106.8445
108.6416
107.51673
106.38747
107.622
110.05562
111.97397
112.96455
113.96015
112.95556
116.77829
118.27469
116.98154
115.53633
112.96319
114.09229
110.98588
108.99963
108.10541
110.01715
110.95005
112.89578
116.74074
120.06361
121.98519
120.49858
118.65589
120.47267
122.56668
124.16296
121.97752
118.2196
116.91988
115.49591
111.91174
112.86981
113.87949
110.91456
110.51461
108.34218
107.45367
104.62625
103.9229
102.60778
101.62288
100.17486
103.22461
104.50115
103.92635
102.59304
103.96554
106.33951
104.75727
101.97354
106.78992
108.5743
107.56213
105.69213
107.54469
109.38456
107.24163
103.13942
109.62838
111.46949
109.95513
107.63518
109.92351
109.92789
112.88536
116.92435
120.48718
122.58405
122.59386
120.52173
116.98628
112.96049
110.02445
111.01642
110.03925
111.56916
109.73059
107.34401
109.4877
110.62362
108.43333
107.63826
105.77187
107.63687
106.41023
104.82128
106.8672
108.66255
107.54455
109.06435
111.03291
112.97947
113.95934
118.29053
116.82987
115.58343
112.00382
110.10827
113.04457
114.18059
111.05596
110.1219
108.16709
106.40955
105.54174
103.37157
101.99078
102.61408
103.94893
104.53168
104.66515
103.99689
102.62061
100.18951
101.64098
103.25867
103.96194
106.8759
107.54015
108.67141
108.44765
107.6387
105.7753
102.02947
104.83401
107.65937
109.76186
110.64865
113.0187
116.85549
120.13555
122.02188
124.19165
122.045
120.55152
118.72534
115.60111
117.02394
118.34339
114.01653
113.00684
112.02916
109.509
110.04587
111.05412
111.61677
110.09156
103.21849
107.36275
107.75171
107.74596
110.04381
112.99708
117.02019
120.53944
122.04755
124.18357
121.99102
120.1205
118.70069
115.51678
116.77992
118.23895
113.90027
112.92238
111.9324
110.04523
113.00608
115.57322
116.84133
118.34205
114.01763
113.0135
112.01712
110.08347
111.03103
114.1531
110.99114
109.0329
108.12452
106.34937
107.55886
109.39444
110.53541
110.93325
111.49268
109.97046
103.13983
107.64293
107.25908
109.65718
107.5807
108.37142
108.60793
107.48999
106.8238
101.96877
105.70492
104.76855
102.57302
103.94537
106.38068
107.61123
109.49327
110.64323
111.05309
111.61485
110.08962
103.21468
107.35339
109.76619
107.63575
108.42388
108.65576
107.52571
106.86503
102.01313
105.7591
104.80609
102.58083
100.17066
103.92099
104.61943
104.50016
103.91875
100.15656
101.60761
103.22687
98.806734
99.900252
101.19268
102.9154
103.99439
103.99272
102.91424
101.20355
99.913094
101.22275
102.97298
104.60024
105.85355
113.89166
110.62716
112.63627
106.00203
104.4842
102.26639
101.98636
101.83441
101.87715
99.452196
99.254136
99.341073
101.76438
102.06509
102.08781
101.78123
101.678
101.71468
101.85156
101.90521
99.215472
99.273203
99.300864
99.332053
102.28989
101.9914
101.80713
101.84089
101.84494
98.892901
96.87453
97.133101
97.367548
99.759906
99.357514
99.373888
102.15189
102.19446
99.387327
97.100427
97.184964
97.175681
97.091042
97.186182
97.200502
99.633988
99.623462
102.45946
102.82156
102.7987
102.42798
99.63451
97.21808
97.090548
97.012087
96.857557
97.112185
97.336691
97.332862
97.151612
96.953225
96.86488
97.049253
97.257331
97.256771
97.050236
96.872413
96.971146
97.16156
97.317951
97.147782
97.185229
97.279247
97.161773
97.102484
97.129749
97.18247
97.181612
97.124918
97.087533
97.133308
97.233082
97.124168
97.071332
99.309724
99.366103
99.855839
99.944028
99.827478
101.24874
99.748179
102.00374
102.00788
102.34173
102.71542
105.4721
105.58238
105.63858
105.65078
105.61689
105.5205
108.79155
112.47012
116.50495
116.63215
116.54274
116.44434
112.33075
112.42423
112.2778
116.40862
116.53852
116.63418
116.47386
112.34919
112.43146
112.23633
116.35614
116.40841
112.29606
112.32614
116.43529
116.67305
116.63141
116.54589
116.67643
112.57768
112.52412
108.67429
108.73068
105.13478
105.07163
105.14476
108.69245
108.7352
105.17628
105.26923
105.21145
108.79689
108.85649
112.6869
112.56985
112.5247
112.6337
116.71823
116.76054
116.9406
116.70695
116.60462
116.67314
116.65879
112.56295
112.45477
108.67435
105.20519
105.16175
108.73382
108.82511
108.81456
105.39234
105.27725