/*--------------------------------*- C++ -*----------------------------------*\
  =========                 |
  \\      /  F ield         | OpenFOAM: The Open Source CFD Toolbox
   \\    /   O peration     | Website:  https://openfoam.org
    \\  /    A nd           | Version:  7
     \\/     M anipulation  |
\*---------------------------------------------------------------------------*/
FoamFile
{
    version     2.0;
    format      ascii;
    class       volScalarField;
    location    "320";
    object      rho;
}
// * * * * * * * * * * * * * * * * * * * * * * * * * * * * * * * * * * * * * //

dimensions      [1 -3 0 0 0 0 0];

internalField   nonuniform List<scalar> 
24866
(
1.1739114
1.1739108
1.1739109
1.1739112
1.1739112
1.1739112
1.1739113
1.1739113
1.1739112
1.1739113
1.1739113
1.1739113
1.1739113
1.1739112
1.1739113
1.1739113
1.1739112
1.1739112
1.1739112
1.1739111
1.1739112
1.1739112
1.1739113
1.1739112
1.1739111
1.1739112
1.1739112
1.1739113
1.1739113
1.1739112
1.1739112
1.1739112
1.1739113
1.1739112
1.1739113
1.1739113
1.1739113
1.1739112
1.1739112
1.1739112
1.1739113
1.1739113
1.1739113
1.1739112
1.1739112
1.1739112
1.1739113
1.1739112
1.1739113
1.1739113
1.1739113
1.1739113
1.1739113
1.1739113
1.1739113
1.1739112
1.1739113
1.1739113
1.1739112
1.1739112
1.1739116
1.1739118
1.1739116
1.1739116
1.1739118
1.173912
1.1739117
1.1739116
1.1739118
1.1739118
1.1739118
1.1739118
1.1739116
1.1739117
1.173912
1.1739118
1.1739115
1.1739116
1.1739118
1.1739115
1.1739115
1.1739117
1.1739119
1.1739121
1.1739122
1.1739117
1.1739116
1.1739117
1.1739116
1.1739117
1.1739121
1.1739123
1.1739132
1.1739132
1.173913
1.1739127
1.1739122
1.1739129
1.1739123
1.1739128
1.1739135
1.1739143
1.1739135
1.173914
1.1739143
1.1739143
1.173914
1.1739131
1.1739127
1.1739119
1.1739118
1.1739116
1.1739116
1.1739118
1.1739123
1.1739129
1.1739135
1.1739144
1.173915
1.1739154
1.1739154
1.173915
1.1739158
1.173915
1.1739141
1.1739131
1.1739123
1.1739125
1.1739134
1.1739144
1.1739154
1.1739163
1.1739168
1.1739163
1.1739163
1.1739158
1.173915
1.1739141
1.1739135
1.1739127
1.1739123
1.1739118
1.1739116
1.1739116
1.1739114
1.1739114
1.1739115
1.1739111
1.1739112
1.1739112
1.1739111
1.1739112
1.173911
1.1739111
1.173911
1.173911
1.1739111
1.1739112
1.1739111
1.173911
1.1739109
1.1739109
1.1739111
1.173911
1.1739111
1.1739111
1.1739111
1.1739112
1.1739112
1.1739111
1.1739112
1.1739112
1.1739112
1.1739112
1.1739111
1.1739112
1.1739112
1.1739111
1.1739115
1.1739116
1.1739114
1.1739114
1.1739117
1.1739115
1.1739117
1.1739118
1.1739123
1.1739123
1.1739129
1.1739123
1.1739128
1.1739131
1.1739123
1.1739125
1.1739134
1.1739144
1.1739154
1.1739163
1.1739168
1.1739168
1.1739168
1.1739163
1.1739154
1.1739143
1.1739133
1.1739131
1.1739121
1.173912
1.1739119
1.1739118
1.1739117
1.1739111
1.173911
1.1739112
1.1739111
1.1739108
1.1739109
1.1739109
1.1739108
1.173911
1.1739109
1.1739109
1.173911
1.173911
1.173911
1.1739109
1.1739107
1.1739108
1.1739109
1.1739108
1.1739109
1.1739109
1.1739108
1.173911
1.1739109
1.1739108
1.1739109
1.1739109
1.1739109
1.1739109
1.1739108
1.1739109
1.173911
1.1739106
1.1739103
1.1739104
1.1739104
1.1739103
1.1739108
1.1739111
1.1739112
1.1739112
1.1739111
1.1739112
1.1739112
1.1739112
1.1739112
1.1739112
1.1739112
1.1739113
1.1739111
1.1739112
1.1739112
1.1739111
1.1739112
1.173911
1.1739111
1.1739112
1.173911
1.173911
1.1739111
1.1739112
1.1739111
1.173911
1.1739111
1.1739115
1.1739115
1.1739115
1.1739115
1.1739117
1.1739117
1.173912
1.1739118
1.1739117
1.1739116
1.1739117
1.1739123
1.1739122
1.1739133
1.1739143
1.1739154
1.1739163
1.1739158
1.1739163
1.1739163
1.1739158
1.173915
1.1739141
1.1739136
1.1739144
1.173915
1.1739154
1.1739154
1.173915
1.1739144
1.173915
1.173914
1.173913
1.1739121
1.1739119
1.1739127
1.1739135
1.1739129
1.1739136
1.1739141
1.1739144
1.1739144
1.1739141
1.1739136
1.1739128
1.1739132
1.1739134
1.1739134
1.1739132
1.1739128
1.1739123
1.1739118
1.1739122
1.1739118
1.1739116
1.1739116
1.1739114
1.1739116
1.1739115
1.1739114
1.1739118
1.1739117
1.1739115
1.1739115
1.1739108
1.173911
1.1739108
1.1739108
1.1739109
1.1739117
1.1739116
1.1739119
1.173912
1.1739115
1.1739118
1.1739117
1.1739116
1.1739117
1.1739109
1.173911
1.173911
1.173911
1.1739109
1.1739109
1.1739105
1.1739106
1.1739103
1.1739105
1.1739105
1.1739103
1.1739106
1.1739105
1.1739104
1.1739105
1.1739105
1.1739105
1.1739105
1.1739103
1.1739104
1.1739106
1.1739103
1.1739104
1.1739104
1.1739103
1.1739106
1.1739104
1.1739104
1.1739105
1.1739105
1.1739105
1.1739105
1.1739103
1.1739104
1.1739099
1.17391
1.1739096
1.1739098
1.1739098
1.1739096
1.1739101
1.1739106
1.173911
1.1739109
1.1739109
1.173911
1.173911
1.173911
1.173911
1.1739109
1.1739109
1.1739111
1.1739108
1.1739109
1.1739109
1.1739105
1.1739103
1.1739106
1.1739105
1.1739104
1.1739105
1.1739106
1.1739106
1.1739106
1.1739104
1.1739098
1.17391
1.1739101
1.1739097
1.1739099
1.1739099
1.1739097
1.1739101
1.1739099
1.1739098
1.17391
1.17391
1.17391
1.17391
1.1739097
1.1739099
1.17391
1.1739096
1.1739098
1.1739098
1.1739096
1.17391
1.1739099
1.1739097
1.17391
1.17391
1.17391
1.17391
1.1739097
1.1739089
1.1739091
1.1739093
1.1739087
1.173909
1.173909
1.1739087
1.1739093
1.1739091
1.1739089
1.1739097
1.1739104
1.1739105
1.1739106
1.1739106
1.1739105
1.1739104
1.1739105
1.1739106
1.1739103
1.1739105
1.1739099
1.1739099
1.1739097
1.1739101
1.1739099
1.1739098
1.17391
1.1739101
1.1739101
1.17391
1.1739093
1.173909
1.1739092
1.1739094
1.1739088
1.1739091
1.1739091
1.1739088
1.1739094
1.1739092
1.173909
1.1739093
1.1739093
1.1739093
1.1739092
1.1739089
1.1739091
1.1739093
1.1739087
1.173909
1.173909
1.1739087
1.1739093
1.1739091
1.1739089
1.1739092
1.1739093
1.1739093
1.1739092
1.1739081
1.1739077
1.1739079
1.1739082
1.1739074
1.1739078
1.1739078
1.1739075
1.1739083
1.1739079
1.1739077
1.1739081
1.1739092
1.17391
1.17391
1.17391
1.17391
1.1739098
1.1739099
1.1739101
1.1739097
1.1739088
1.1739091
1.1739091
1.1739088
1.1739094
1.1739092
1.173909
1.1739093
1.1739094
1.1739094
1.1739083
1.1739083
1.1739078
1.1739081
1.1739084
1.1739076
1.173908
1.173908
1.1739076
1.1739084
1.1739081
1.1739078
1.1739082
1.1739083
1.1739083
1.1739082
1.1739077
1.173908
1.1739083
1.1739075
1.1739078
1.1739078
1.1739075
1.1739083
1.1739079
1.1739077
1.1739081
1.1739082
1.1739082
1.1739067
1.1739066
1.173906
1.1739063
1.1739068
1.1739057
1.1739062
1.1739062
1.1739057
1.1739068
1.1739064
1.173906
1.1739066
1.1739068
1.1739082
1.1739093
1.1739093
1.1739092
1.1739089
1.1739091
1.1739094
1.1739083
1.1739075
1.1739079
1.1739079
1.1739076
1.1739084
1.1739081
1.1739078
1.1739082
1.1739083
1.1739069
1.1739069
1.1739068
1.1739062
1.1739065
1.173907
1.1739059
1.1739064
1.1739064
1.1739059
1.1739069
1.1739065
1.1739061
1.1739067
1.1739068
1.1739068
1.1739067
1.1739061
1.1739064
1.1739068
1.1739058
1.1739063
1.1739062
1.1739058
1.1739068
1.1739064
1.173906
1.1739066
1.1739067
1.1739048
1.1739048
1.1739046
1.1739038
1.1739043
1.1739048
1.1739035
1.1739041
1.1739041
1.1739035
1.1739049
1.1739043
1.1739038
1.1739046
1.1739048
1.1739048
1.1739068
1.1739082
1.1739082
1.1739077
1.173908
1.1739064
1.1739069
1.1739058
1.1739063
1.1739063
1.1739059
1.1739069
1.1739065
1.1739062
1.1739068
1.1739048
1.173905
1.173905
1.1739048
1.1739041
1.1739045
1.1739051
1.1739037
1.1739043
1.1739043
1.1739037
1.173905
1.1739045
1.173904
1.1739048
1.1739049
1.1739049
1.1739047
1.1739039
1.1739044
1.1739049
1.1739036
1.1739042
1.1739042
1.1739035
1.1739049
1.1739043
1.1739038
1.1739046
1.1739022
1.1739024
1.1739023
1.1739021
1.1739012
1.1739018
1.1739025
1.1739008
1.1739016
1.1739016
1.1739009
1.1739025
1.1739018
1.1739012
1.1739022
1.1739024
1.1739024
1.1739022
1.1739047
1.1739067
1.1739061
1.1739039
1.1739044
1.173905
1.1739036
1.1739043
1.1739043
1.1739037
1.173905
1.1739045
1.173904
1.1739014
1.1739024
1.1739026
1.1739026
1.1739024
1.1739015
1.1739021
1.1739027
1.1739011
1.1739019
1.1739019
1.1739011
1.1739027
1.173902
1.1739014
1.1739023
1.1739025
1.1739025
1.1739023
1.1739013
1.1739019
1.1739026
1.1739009
1.1739017
1.1739017
1.1739009
1.1739025
1.1739018
1.1739012
1.1738983
1.1738994
1.1738996
1.1738996
1.1738993
1.1738983
1.173899
1.1738998
1.173898
1.1738989
1.1738989
1.173898
1.1738998
1.173899
1.1738983
1.1738994
1.1738996
1.1738996
1.1738994
1.1738984
1.1739013
1.1739019
1.1739026
1.173901
1.1739018
1.1739018
1.1739011
1.1739027
1.173902
1.1738993
1.1738986
1.1738996
1.1738999
1.1738999
1.1738996
1.1738986
1.1738993
1.1739001
1.1738983
1.1738992
1.1738992
1.1738983
1.1739
1.1738992
1.1738985
1.1738995
1.1738998
1.1738997
1.1738995
1.1738984
1.1738991
1.1738999
1.1738981
1.173899
1.173899
1.1738981
1.1738998
1.173899
1.1738965
1.1738957
1.1738967
1.1738969
1.1738969
1.1738967
1.1738957
1.1738964
1.1738972
1.1738956
1.1738965
1.1738965
1.1738956
1.1738972
1.1738965
1.1738957
1.1738967
1.1738969
1.173897
1.1738968
1.1738959
1.1738966
1.1738992
1.1738999
1.1738982
1.1738991
1.1738991
1.1738983
1.1739
1.1738975
1.1738968
1.173896
1.173897
1.1738972
1.1738972
1.173897
1.1738961
1.1738968
1.1738976
1.1738959
1.1738968
1.1738968
1.1738959
1.1738975
1.1738967
1.173896
1.1738969
1.1738971
1.1738971
1.1738969
1.1738959
1.1738966
1.1738973
1.1738957
1.1738966
1.1738965
1.1738956
1.1738973
1.1738956
1.173895
1.1738943
1.1738949
1.173895
1.173895
1.1738949
1.1738942
1.1738949
1.1738955
1.1738943
1.1738951
1.1738951
1.1738943
1.1738955
1.1738949
1.1738943
1.173895
1.173895
1.1738951
1.173895
1.1738944
1.1738951
1.1738957
1.1738974
1.1738958
1.1738967
1.1738967
1.1738958
1.1738946
1.1738958
1.1738952
1.1738946
1.1738953
1.1738953
1.1738953
1.1738953
1.1738946
1.1738953
1.1738959
1.1738946
1.1738954
1.1738954
1.1738946
1.1738958
1.1738952
1.1738945
1.1738952
1.1738952
1.1738952
1.1738951
1.1738944
1.1738951
1.1738957
1.1738944
1.1738952
1.1738952
1.1738944
1.1738951
1.1738958
1.1738954
1.1738949
1.1738953
1.1738952
1.1738952
1.1738953
1.1738949
1.1738954
1.1738957
1.1738951
1.1738956
1.1738956
1.1738951
1.1738958
1.1738954
1.1738949
1.1738953
1.1738952
1.1738953
1.1738954
1.1738951
1.1738956
1.173896
1.1738953
1.1738945
1.1738953
1.1738954
1.173896
1.1738954
1.1738961
1.1738957
1.1738953
1.1738957
1.1738956
1.1738956
1.1738957
1.1738953
1.1738958
1.1738962
1.1738954
1.173896
1.173896
1.1738954
1.1738961
1.1738957
1.1738952
1.1738955
1.1738954
1.1738954
1.1738955
1.1738951
1.1738955
1.1738959
1.1738952
1.1738957
1.1738957
1.1738987
1.1738984
1.1738986
1.1738985
1.1738983
1.1738983
1.1738982
1.1738982
1.1738983
1.1738982
1.1738984
1.1738985
1.1738984
1.1738986
1.1738986
1.1738984
1.1738985
1.1738985
1.1738983
1.1738984
1.1738983
1.1738983
1.1738985
1.1738985
1.1738986
1.1738988
1.1738987
1.1738989
1.1738959
1.173897
1.1738957
1.173897
1.1738968
1.1738952
1.173897
1.1738962
1.1738959
1.1738959
1.1738962
1.1738971
1.1738986
1.1738987
1.1738988
1.1738989
1.1738987
1.173899
1.173899
1.1738987
1.1738989
1.1738987
1.1738985
1.1738986
1.1738984
1.1738984
1.1738985
1.1738984
1.1738986
1.1738987
1.1738985
1.1738987
1.1739036
1.1739036
1.1739036
1.1739032
1.1739033
1.1739034
1.1739032
1.1739031
1.1739031
1.1739032
1.1739034
1.1739033
1.1739032
1.1739035
1.1739035
1.1739035
1.1739035
1.1739032
1.1739034
1.1739035
1.1739033
1.1739032
1.1739033
1.1739034
1.1739036
1.1739035
1.1739035
1.1739038
1.1739038
1.1739038
1.173899
1.1738987
1.1738989
1.1738988
1.1738986
1.1738987
1.1738986
1.1738986
1.1738987
1.1739036
1.1739038
1.1739037
1.1739036
1.1739038
1.1739038
1.1739038
1.1739038
1.1739035
1.1739036
1.1739036
1.1739035
1.1739033
1.1739033
1.1739034
1.1739035
1.1739034
1.1739033
1.1739036
1.1739097
1.1739095
1.1739095
1.1739097
1.173909
1.1739093
1.1739096
1.1739092
1.173909
1.173909
1.1739091
1.1739096
1.1739093
1.173909
1.1739097
1.1739095
1.1739095
1.1739097
1.173909
1.1739093
1.1739097
1.1739093
1.1739091
1.1739092
1.1739093
1.1739098
1.1739094
1.1739092
1.1739099
1.1739097
1.1739097
1.1739099
1.1739038
1.1739035
1.1739037
1.1739038
1.1739036
1.1739035
1.1739035
1.1739094
1.1739095
1.1739098
1.1739095
1.1739093
1.1739099
1.1739097
1.1739096
1.1739099
1.1739092
1.1739094
1.1739098
1.1739093
1.1739092
1.1739092
1.1739093
1.1739097
1.1739093
1.173909
1.1739154
1.1739164
1.173916
1.173916
1.1739164
1.1739154
1.1739158
1.1739164
1.1739157
1.1739155
1.1739155
1.1739157
1.1739164
1.1739158
1.1739154
1.1739165
1.173916
1.173916
1.1739165
1.1739155
1.1739159
1.1739165
1.1739158
1.1739156
1.1739157
1.1739159
1.1739165
1.1739159
1.1739156
1.1739166
1.1739161
1.1739162
1.1739165
1.1739156
1.1739093
1.1739096
1.1739099
1.1739095
1.1739094
1.1739157
1.1739157
1.1739159
1.1739164
1.1739159
1.1739156
1.1739165
1.1739161
1.173916
1.1739165
1.1739155
1.1739159
1.1739164
1.1739158
1.1739156
1.1739156
1.1739158
1.1739164
1.1739159
1.1739228
1.1739223
1.1739235
1.1739229
1.1739229
1.1739235
1.1739223
1.1739228
1.1739235
1.1739228
1.1739227
1.1739227
1.1739228
1.1739236
1.1739229
1.1739224
1.1739236
1.173923
1.173923
1.1739237
1.1739225
1.173923
1.1739237
1.1739229
1.1739228
1.1739228
1.1739229
1.1739236
1.1739228
1.1739224
1.1739235
1.1739229
1.1739229
1.1739234
1.1739223
1.1739228
1.173916
1.1739165
1.1739159
1.1739227
1.1739226
1.1739226
1.1739227
1.1739233
1.1739227
1.1739223
1.1739233
1.1739228
1.1739228
1.1739234
1.1739223
1.1739227
1.1739234
1.1739227
1.1739226
1.1739226
1.1739228
1.1739235
1.1739303
1.1739295
1.1739291
1.1739302
1.1739296
1.1739296
1.1739303
1.1739291
1.1739296
1.1739304
1.1739297
1.1739297
1.1739297
1.1739298
1.1739305
1.1739297
1.1739293
1.1739305
1.1739298
1.1739298
1.1739305
1.1739293
1.1739298
1.1739305
1.1739298
1.1739297
1.1739297
1.1739297
1.1739304
1.1739295
1.1739291
1.1739301
1.1739294
1.1739295
1.17393
1.1739289
1.1739293
1.17393
1.1739234
1.1739198
1.1739193
1.1739189
1.1739188
1.1739193
1.1739197
1.1739264
1.1739299
1.1739292
1.1739288
1.1739298
1.1739293
1.1739293
1.1739299
1.1739289
1.1739293
1.1739301
1.1739295
1.1739295
1.1739295
1.1739296
1.1739354
1.173936
1.1739353
1.1739349
1.173936
1.1739354
1.1739354
1.1739361
1.173935
1.1739354
1.1739363
1.1739356
1.1739356
1.1739356
1.1739357
1.1739364
1.1739356
1.1739352
1.1739363
1.1739357
1.1739357
1.1739363
1.1739352
1.1739356
1.1739364
1.1739357
1.1739356
1.1739355
1.1739355
1.1739361
1.1739352
1.1739349
1.1739358
1.1739351
1.1739352
1.1739356
1.1739346
1.1739349
1.1739356
1.173935
1.1739293
1.1739293
1.1739292
1.1739293
1.1739349
1.1739355
1.1739349
1.1739345
1.1739355
1.173935
1.173935
1.1739356
1.1739347
1.173935
1.1739359
1.1739352
1.1739352
1.1739353
1.1739402
1.1739403
1.1739409
1.1739402
1.1739399
1.1739409
1.1739404
1.1739404
1.173941
1.17394
1.1739404
1.1739412
1.1739405
1.1739405
1.1739406
1.1739407
1.1739413
1.1739406
1.1739402
1.1739413
1.1739407
1.1739407
1.1739413
1.1739402
1.1739406
1.1739413
1.1739406
1.1739405
1.1739404
1.1739404
1.173941
1.17394
1.1739398
1.1739406
1.17394
1.17394
1.1739404
1.1739394
1.1739397
1.1739404
1.1739398
1.1739397
1.1739349
1.1739349
1.1739397
1.1739397
1.1739403
1.1739396
1.1739393
1.1739403
1.1739398
1.1739398
1.1739404
1.1739395
1.1739398
1.1739407
1.1739401
1.1739401
1.1739444
1.1739444
1.1739445
1.1739452
1.1739445
1.1739442
1.1739452
1.1739447
1.1739447
1.1739453
1.1739444
1.1739447
1.1739455
1.1739449
1.1739449
1.1739449
1.173945
1.1739456
1.1739449
1.1739446
1.1739455
1.173945
1.173945
1.1739455
1.1739446
1.1739449
1.1739455
1.1739449
1.1739448
1.1739447
1.1739446
1.1739452
1.1739443
1.173944
1.1739448
1.1739442
1.1739443
1.1739446
1.1739437
1.173944
1.1739445
1.173944
1.1739439
1.1739439
1.1739439
1.1739445
1.1739439
1.1739436
1.1739445
1.1739441
1.1739441
1.1739446
1.1739438
1.1739441
1.1739449
1.1739443
1.1739481
1.1739481
1.1739482
1.1739483
1.1739488
1.1739483
1.173948
1.1739489
1.1739485
1.1739485
1.173949
1.1739482
1.1739484
1.1739492
1.1739486
1.1739486
1.1739487
1.1739487
1.1739493
1.1739487
1.1739484
1.1739493
1.1739488
1.1739488
1.1739492
1.1739484
1.1739486
1.1739492
1.1739486
1.1739485
1.1739485
1.1739484
1.1739489
1.173948
1.1739478
1.1739485
1.1739479
1.173948
1.1739483
1.1739474
1.1739477
1.1739482
1.1739477
1.1739476
1.1739476
1.1739477
1.1739482
1.1739476
1.1739474
1.1739482
1.1739478
1.1739478
1.1739483
1.1739476
1.1739478
1.1739486
1.1739517
1.1739512
1.1739513
1.1739513
1.1739514
1.173952
1.1739514
1.1739512
1.1739521
1.1739517
1.1739517
1.1739522
1.1739514
1.1739517
1.1739523
1.1739518
1.1739518
1.1739518
1.1739519
1.1739524
1.1739519
1.1739516
1.1739524
1.173952
1.173952
1.1739524
1.1739516
1.1739518
1.1739524
1.1739518
1.1739517
1.1739516
1.1739515
1.173952
1.1739512
1.173951
1.1739517
1.1739512
1.1739512
1.1739514
1.1739507
1.1739509
1.1739514
1.1739509
1.1739508
1.1739508
1.1739509
1.1739513
1.1739508
1.1739506
1.1739514
1.1739511
1.1739511
1.1739515
1.1739508
1.173951
1.1739537
1.1739544
1.1739539
1.1739539
1.173954
1.1739541
1.1739546
1.1739541
1.173954
1.1739548
1.1739545
1.1739545
1.1739549
1.1739542
1.1739544
1.173955
1.1739545
1.1739545
1.1739545
1.1739546
1.1739551
1.1739546
1.1739543
1.1739551
1.1739548
1.1739547
1.1739551
1.1739543
1.1739545
1.173955
1.1739545
1.1739544
1.1739543
1.1739542
1.1739547
1.173954
1.1739538
1.1739544
1.173954
1.173954
1.1739542
1.1739535
1.1739537
1.1739541
1.1739537
1.1739536
1.1739536
1.1739536
1.1739541
1.1739536
1.1739534
1.1739541
1.1739539
1.1739539
1.1739543
1.1739536
1.1739559
1.173956
1.1739565
1.173956
1.1739561
1.1739561
1.1739562
1.1739567
1.1739564
1.1739562
1.1739571
1.1739568
1.1739568
1.1739572
1.1739565
1.1739567
1.1739572
1.1739567
1.1739566
1.1739567
1.1739567
1.1739573
1.1739569
1.1739566
1.1739574
1.1739571
1.173957
1.1739574
1.1739566
1.1739568
1.1739573
1.1739567
1.1739566
1.1739565
1.1739565
1.173957
1.1739564
1.1739562
1.1739568
1.1739564
1.1739564
1.1739566
1.1739559
1.1739561
1.1739565
1.173956
1.1739559
1.1739559
1.1739559
1.1739564
1.173956
1.1739558
1.1739566
1.1739563
1.1739563
1.1739566
1.1739586
1.1739579
1.1739578
1.1739582
1.1739578
1.1739578
1.1739579
1.1739579
1.1739584
1.1739581
1.1739581
1.173959
1.1739588
1.1739588
1.1739592
1.1739584
1.1739586
1.173959
1.1739584
1.1739584
1.1739584
1.1739585
1.1739591
1.1739587
1.1739585
1.1739593
1.173959
1.173959
1.1739593
1.1739585
1.1739587
1.1739591
1.1739584
1.1739583
1.1739582
1.1739583
1.1739589
1.1739583
1.1739582
1.1739588
1.1739584
1.1739584
1.1739587
1.173958
1.1739581
1.1739585
1.1739581
1.1739578
1.1739578
1.1739579
1.1739584
1.173958
1.1739579
1.1739586
1.1739584
1.1739583
1.1739596
1.17396
1.1739593
1.1739589
1.1739593
1.1739588
1.173959
1.173959
1.173959
1.1739594
1.1739592
1.1739594
1.1739603
1.1739599
1.1739599
1.1739603
1.1739596
1.1739599
1.1739601
1.1739595
1.1739594
1.1739594
1.1739596
1.1739602
1.1739599
1.1739596
1.1739604
1.17396
1.17396
1.1739604
1.1739596
1.1739599
1.1739602
1.1739595
1.1739594
1.1739594
1.1739594
1.17396
1.1739597
1.1739595
1.17396
1.1739597
1.1739596
1.17396
1.1739592
1.1739594
1.1739596
1.1739593
1.1739592
1.1739591
1.1739592
1.1739597
1.1739595
1.1739592
1.1739599
1.1739596
1.1739602
1.1739602
1.1739602
1.1739597
1.1739598
1.1739596
1.1739596
1.1739596
1.1739597
1.1739599
1.1739598
1.1739605
1.1739604
1.1739605
1.1739605
1.17396
1.1739603
1.1739604
1.17396
1.1739601
1.1739601
1.1739601
1.1739604
1.1739604
1.17396
1.1739606
1.1739606
1.1739606
1.1739606
1.1739601
1.1739603
1.1739604
1.17396
1.1739601
1.17396
1.17396
1.1739603
1.1739601
1.1739599
1.1739603
1.1739603
1.1739602
1.1739603
1.1739597
1.1739601
1.1739601
1.1739599
1.1739597
1.1739598
1.1739597
1.1739601
1.17396
1.1739597
1.1739603
1.1739597
1.1739596
1.1739588
1.1739575
1.1739558
1.1739541
1.1739529
1.1739531
1.1739545
1.173956
1.1739576
1.1739589
1.1739597
1.1739598
1.1739587
1.1739576
1.1739555
1.1739515
1.1739488
1.1739462
1.173946
1.1739484
1.1739512
1.1739554
1.1739576
1.1739586
1.1739597
1.1739596
1.1739592
1.1739593
1.1739583
1.1739586
1.1739584
1.1739584
1.1739582
1.1739581
1.1739582
1.1739584
1.1739588
1.1739594
1.1739591
1.1739581
1.1739584
1.1739577
1.1739586
1.1739584
1.1739575
1.173957
1.1739572
1.1739581
1.1739585
1.1739587
1.1739598
1.1739596
1.1739591
1.1739594
1.1739584
1.1739584
1.1739582
1.1739582
1.1739589
1.1739578
1.1739576
1.1739576
1.1739578
1.1739572
1.1739578
1.173958
1.1739594
1.1739602
1.1739601
1.1739591
1.173958
1.173957
1.1739573
1.1739572
1.173958
1.1739583
1.1739592
1.1739584
1.1739585
1.1739586
1.1739594
1.1739592
1.1739587
1.1739574
1.1739575
1.1739579
1.1739582
1.1739591
1.1739581
1.1739576
1.173956
1.1739562
1.1739558
1.1739561
1.1739568
1.1739564
1.1739568
1.1739547
1.1739521
1.1739516
1.1739521
1.1739546
1.1739542
1.1739524
1.173954
1.1739514
1.1739511
1.1739516
1.1739541
1.1739538
1.1739513
1.1739509
1.1739534
1.1739555
1.1739572
1.1739554
1.1739562
1.1739574
1.173954
1.1739563
1.1739545
1.1739523
1.1739498
1.1739545
1.1739538
1.1739478
1.1739494
1.1739514
1.1739391
1.1739472
1.1739533
1.1739564
1.1739577
1.173956
1.1739545
1.1739523
1.1739557
1.173956
1.1739572
1.17396
1.17396
1.1739601
1.1739601
1.1739601
1.1739601
1.1739574
1.1739574
1.1739571
1.173957
1.1739573
1.1739558
1.1739555
1.173954
1.1739545
1.1739566
1.1739581
1.1739549
1.1739491
1.1739306
1.1739269
1.1739253
1.1739254
1.1739268
1.1739305
1.1739352
1.1739395
1.1739456
1.1739456
1.1739396
1.1739352
1.1739306
1.173927
1.1739255
1.1739256
1.1739269
1.1739306
1.1739351
1.1739395
1.1739455
1.1739456
1.1739512
1.1739559
1.1739586
1.1739595
1.1739597
1.1739588
1.1739587
1.1739586
1.1739588
1.1739596
1.1739594
1.1739585
1.1739559
1.1739513
1.1739458
1.1739455
1.1739398
1.1739354
1.1739308
1.173927
1.1739256
1.1739256
1.1739268
1.1739305
1.173935
1.1739395
1.1739453
1.1739456
1.1739396
1.1739354
1.17393
1.1739198
1.1739146
1.173918
1.173929
1.1739379
1.1739377
1.1739286
1.1739178
1.1739146
1.1739201
1.1739302
1.1739357
1.1739485
1.1739543
1.1739576
1.1739571
1.173953
1.1739462
1.1739273
1.1739309
1.1739261
1.1739177
1.1739175
1.1739303
1.1739407
1.1739548
1.1739672
1.1739782
1.1739843
1.1739845
1.1739785
1.1739678
1.1739554
1.1739413
1.1739308
1.1739178
1.1739411
1.1739625
1.1739831
1.1740025
1.174018
1.1740266
1.1740265
1.1740176
1.1740019
1.1739823
1.1739616
1.1739404
1.1739543
1.1739278
1.1739174
1.1739229
1.173922
1.1739257
1.1739257
1.1739462
1.173953
1.1739571
1.1739577
1.1739542
1.1739484
1.1739306
1.173927
1.1739228
1.173922
1.1739188
1.1739188
1.1739364
1.1739771
1.1739663
1.1740013
1.173982
1.1740095
1.1740356
1.1740567
1.1740687
1.1740689
1.1740572
1.1740363
1.1740106
1.1739832
1.1739553
1.1739285
1.1739676
1.1740027
1.1740365
1.1740693
1.1740957
1.1741108
1.1741106
1.1740952
1.1740684
1.1740354
1.1740564
1.174017
1.1740258
1.1739832
1.1739834
1.1739365
1.1739775
1.1740175
1.174026
1.1740688
1.1740685
1.1741106
1.1740951
1.1741272
1.1741458
1.174146
1.1741279
1.1740961
1.1740578
1.1740185
1.1739786
1.1739374
1.1739847
1.1740274
1.1740699
1.1741116
1.1741465
1.1741669
1.1741667
1.1741459
1.1741463
1.174111
1.1740961
1.1740572
1.1740364
1.1740021
1.1739669
1.1739279
1.1739173
1.1739175
1.1739258
1.1739298
1.1739351
1.1739394
1.1739357
1.1739272
1.1739196
1.1739142
1.1739173
1.1739406
1.1739547
1.1739827
1.1740105
1.1740367
1.1740697
1.1740966
1.1741283
1.1741469
1.1741672
1.1741674
1.1741469
1.174112
1.1740701
1.1740276
1.1739848
1.1739374
1.1739788
1.1740189
1.1740584
1.174097
1.1741289
1.1741471
1.1741122
1.1741121
1.1740701
1.174058
1.1740184
1.1740027
1.1739829
1.173962
1.1739407
1.1739303
1.1739173
1.173928
1.173955
1.1739674
1.1739783
1.1739845
1.1740273
1.1740273
1.1740702
1.1740584
1.1740971
1.1740704
1.1740373
1.1740032
1.1739679
1.1739283
1.1739555
1.1739836
1.1740112
1.1740373
1.174003
1.1740187
1.1739784
1.1739845
1.1739369
1.1739369
1.1739187
1.1739173
1.1739174
1.1739195
1.1739297
1.1739357
1.1739418
1.1739319
1.1739278
1.1739086
1.1739066
1.1738917
1.173892
1.1738925
1.1738921
1.1739075
1.17391
1.1739289
1.1739398
1.173936
1.173942
1.1739361
1.1739302
1.173926
1.1739229
1.1739221
1.1739221
1.1739228
1.1739258
1.1739299
1.1739358
1.1739417
1.1739358
1.1739274
1.1739198
1.1739176
1.1739178
1.1739193
1.1739193
1.1739177
1.1739177
1.17392
1.1739277
1.1739293
1.1739291
1.1739107
1.173908
1.1738932
1.1738937
1.1738936
1.1738933
1.1739079
1.1739104
1.1739291
1.1739333
1.1739369
1.1739287
1.1739293
1.1739169
1.1739174
1.173919
1.1739151
1.1739083
1.1739186
1.1739277
1.1739196
1.17391
1.1739087
1.1739171
1.1739102
1.1739175
1.1739075
1.1739259
1.1739175
1.1739174
1.1739227
1.1739218
1.1739188
1.1739187
1.1739218
1.1739226
1.1739172
1.1739172
1.1739174
1.1739305
1.173941
1.1739552
1.1739676
1.1739281
1.1739174
1.1739141
1.1739195
1.1739298
1.1739257
1.1739068
1.173892
1.1738924
1.1738926
1.1738924
1.1739081
1.173915
1.1739191
1.1739098
1.1739249
1.1738956
1.1739162
1.1739184
1.173936
1.1739517
1.1739358
1.1739183
1.173954
1.1739647
1.1739206
1.1739454
1.1739584
1.1739406
1.1739434
1.17399
1.1739877
1.1739687
1.1739939
1.1739687
1.1739453
1.1739192
1.1739203
1.1739434
1.1739646
1.1739904
1.1739404
1.1739583
1.173988
1.1740022
1.1739665
1.1739272
1.1739187
1.1739184
1.1739079
1.1739149
1.1739187
1.173917
1.1739092
1.1739166
1.173908
1.1739093
1.1739191
1.1739272
1.1739734
1.1739734
1.1739544
1.1739448
1.1739672
1.1740014
1.1740126
1.174011
1.174053
1.1740409
1.1740201
1.1740192
1.1739895
1.1740189
1.1740198
1.1740538
1.1740551
1.1740827
1.1740396
1.1740009
1.1739451
1.1739665
1.1739732
1.1739542
1.1739669
1.1740115
1.1740102
1.1740017
1.1740404
1.174052
1.1740524
1.174099
1.1740955
1.1740801
1.1741129
1.1740805
1.1740831
1.1740403
1.1740536
1.1741
1.1740964
1.1741321
1.1741381
1.1741176
1.1741375
1.1741315
1.1741526
1.1741602
1.1741599
1.1741359
1.1740958
1.1740496
1.1740367
1.1740155
1.1739875
1.1739783
1.1740053
1.1740449
1.1740054
1.1740156
1.1740504
1.1740789
1.1740758
1.1740289
1.1740419
1.1740937
1.1740931
1.1740418
1.1739598
1.1739041
1.1738999
1.1738925
1.1739007
1.1739129
1.17391
1.1739199
1.1739273
1.1739271
1.1739084
1.1739186
1.173915
1.173919
1.1739177
1.1739171
1.1739086
1.1739097
1.1739193
1.1739275
1.173973
1.1739542
1.1739666
1.1739448
1.1739662
1.1740014
1.1740101
1.1740114
1.1740005
1.1739894
1.1739402
1.1739579
1.1739448
1.1739201
1.1739429
1.173964
1.1739679
1.1739872
1.1740191
1.1740399
1.1740519
1.1740522
1.1740391
1.1740822
1.1740988
1.1740954
1.1740796
1.174053
1.1740544
1.1740182
1.1739887
1.1739931
1.174019
1.1740183
1.1740392
1.1740823
1.1741171
1.1741373
1.1741313
1.1741123
1.1741315
1.1741525
1.17416
1.1741375
1.1740992
1.1740955
1.1740796
1.1740398
1.1740518
1.1740525
1.1740115
1.1740003
1.1739894
1.1739638
1.1739534
1.1739179
1.1739354
1.1739244
1.1739095
1.1738953
1.1739158
1.1739177
1.1739351
1.173951
1.1739677
1.1739444
1.1739186
1.1739196
1.1739428
1.1739394
1.1739572
1.1739868
1.1740009
1.1739653
1.1739265
1.1739438
1.1739664
1.1739533
1.1739722
1.1740097
1.1740099
1.1740521
1.1740959
1.1741319
1.1741529
1.1741531
1.1741325
1.1740967
1.1740532
1.1740112
1.1740126
1.1739542
1.1739674
1.1739451
1.1739668
1.1740026
1.174002
1.1739909
1.1739404
1.1739584
1.1739884
1.1739691
1.1739454
1.1739204
1.1739437
1.1739653
1.1739904
1.1740201
1.174041
1.1740538
1.1741004
1.1740841
1.1740814
1.1740415
1.1740208
1.1740549
1.1740564
1.1740202
1.1740208
1.1739946
1.1739689
1.1739834
1.1739625
1.173941
1.1739357
1.1739179
1.173916
1.1739544
1.1739518
1.1739357
1.1739092
1.1739246
1.173895
1.1739181
1.1739204
1.1739652
1.1739439
1.173991
1.1739883
1.1739583
1.1739189
1.1739452
1.1739406
1.1739452
1.1740021
1.1740412
1.1740843
1.1741188
1.1741386
1.1741607
1.1741388
1.1741327
1.1741139
1.1740815
1.1740971
1.1741008
1.1740542
1.1740534
1.1740416
1.1740024
1.1740111
1.1740129
1.1739679
1.1739545
1.173927
1.1739665
1.1739732
1.1739732
1.1740111
1.1740533
1.1740969
1.1741325
1.1741387
1.1741606
1.174138
1.1741184
1.1741134
1.1740806
1.1740834
1.1740995
1.1740528
1.1740401
1.1740405
1.17402
1.1740543
1.1740811
1.174084
1.1741008
1.1740542
1.174041
1.1740413
1.1740204
1.1740199
1.1740559
1.1740195
1.17399
1.173994
1.1739684
1.1739875
1.1740014
1.1740011
1.1740116
1.1739668
1.1739533
1.1739266
1.1739722
1.1739657
1.1739442
1.1739397
1.1739902
1.1739434
1.1739649
1.17392
1.1739188
1.1739576
1.1739448
1.1739353
1.1739514
1.1739685
1.173988
1.1740022
1.1740019
1.1740129
1.1739678
1.1739545
1.173927
1.1739663
1.1739451
1.1739405
1.1739908
1.1739438
1.1739649
1.1739203
1.1739189
1.1739581
1.1739449
1.1739355
1.1739092
1.173918
1.1739541
1.1739159
1.1739177
1.1739092
1.1739244
1.1738949
1.1739078
1.1739125
1.1739094
1.1739195
1.1739266
1.1739264
1.1739193
1.1739095
1.1739129
1.1739099
1.1739197
1.1738997
1.1739039
1.1739596
1.1739344
1.1739252
1.1739059
1.1738981
1.1739338
1.173948
1.173954
1.1739557
1.1739573
1.1739557
1.1739569
1.1739548
1.1739562
1.1739563
1.1739559
1.1739562
1.1739546
1.1739524
1.17395
1.1739518
1.1739496
1.1739333
1.1739331
1.1739336
1.1739395
1.1739465
1.1739521
1.1739466
1.1739473
1.1739514
1.1739561
1.1739584
1.1739576
1.1739542
1.1739519
1.17395
1.1739482
1.1739501
1.173954
1.1739472
1.1739471
1.173954
1.1739579
1.1739579
1.1739561
1.1739562
1.173954
1.1739556
1.1739559
1.1739546
1.1739566
1.1739581
1.1739549
1.1739491
1.1739515
1.1739562
1.1739585
1.1739588
1.1739577
1.1739555
1.1739512
1.1739484
1.173946
1.173946
1.1739484
1.1739512
1.1739554
1.1739577
1.1739589
1.1739601
1.1739599
1.173959
1.1739577
1.1739559
1.1739542
1.173953
1.173953
1.1739542
1.1739559
1.1739577
1.173959
1.1739598
1.1739599
1.1739595
1.1739593
1.1739584
1.1739584
1.173959
1.1739586
1.1739586
1.1739571
1.1739563
1.1739559
1.1739562
1.1739542
1.1739539
1.1739535
1.1739534
1.1739537
1.173954
1.1739516
1.1739488
1.1739455
1.1739452
1.1739453
1.1739459
1.1739492
1.1739487
1.1739492
1.1739458
1.1739454
1.1739439
1.1739452
1.1739485
1.1739483
1.1739487
1.1739453
1.1739451
1.1739484
1.173948
1.1739447
1.1739438
1.1739441
1.173945
1.1739425
1.1739455
1.1739471
1.1739499
1.173948
1.1739503
1.1739536
1.1739523
1.17395
1.1739495
1.1739518
1.1739459
1.1739478
1.1739458
1.1739439
1.1739419
1.1739469
1.1739473
1.1739437
1.1739411
1.1739397
1.1739311
1.1739363
1.1739401
1.173943
1.1739439
1.1739471
1.1739486
1.1739515
1.1739539
1.1739524
1.1739499
1.1739481
1.1739513
1.1739537
1.1739504
1.1739479
1.1739524
1.1739501
1.1739514
1.1739511