/*--------------------------------*- C++ -*----------------------------------*\
  =========                 |
  \\      /  F ield         | OpenFOAM: The Open Source CFD Toolbox
   \\    /   O peration     | Website:  https://openfoam.org
    \\  /    A nd           | Version:  7
     \\/     M anipulation  |
\*---------------------------------------------------------------------------*/
FoamFile
{
    version     2.0;
    format      ascii;
    class       volScalarField;
    location    "430";
    object      k;
}
// * * * * * * * * * * * * * * * * * * * * * * * * * * * * * * * * * * * * * //

dimensions      [0 2 -2 0 0 0 0];

internalField   nonuniform List<scalar> 
24789
(
116.00611
185.22033
253.09936
318.34717
686.87315
693.58784
321.45743
255.51891
186.81081
116.54119
117.09248
188.44874
258.00858
324.65719
700.49266
707.59639
327.9527
260.57384
190.13806
117.66187
118.25037
191.88097
263.21798
331.34852
714.91
722.44483
334.85164
265.94691
193.6816
118.85949
119.49036
195.54269
268.7647
338.46761
730.21381
738.23037
342.20422
271.67769
197.46856
120.14464
120.82379
199.46267
274.69095
346.06815
746.50977
755.06807
350.06787
277.81136
201.52979
121.52976
122.26443
203.67438
281.04558
354.21206
763.92342
773.09519
358.51085
284.4016
205.90186
123.03009
123.82913
208.2175
287.88735
362.97459
782.60501
792.4766
367.61482
291.51178
210.62739
124.66435
125.53891
213.13797
295.28457
372.44394
802.7365
813.41423
377.47663
299.21685
215.75662
126.4565
127.42129
218.49115
303.32071
382.72877
824.54298
836.15998
388.21725
307.60866
221.34967
128.43811
129.51273
224.3416
312.09551
393.96168
848.30753
861.03385
399.98412
316.79708
227.47666
130.65194
131.86411
230.76583
321.73168
406.30992
874.39441
888.45345
412.96672
326.91846
234.22024
133.15921
134.54968
237.85224
332.37974
419.98699
903.28569
918.97911
427.40733
338.13945
241.67436
136.05093
137.68286
245.70045
344.22609
435.27202
935.63773
953.38559
443.63219
350.67074
249.94393
139.47045
141.4457
254.4223
357.51275
452.55206
972.37253
992.7755
462.11828
364.80622
259.16003
143.65727
146.18082
264.18311
372.64708
472.4734
1014.7905
1038.6677
483.91437
381.27293
269.52814
149.10807
152.75406
276.10613
391.43771
497.14191
1064.7085
1092.3181
513.32606
404.43411
285.63617
158.11245
166.01978
295.39952
420.7484
533.53995
1119.4588
1150.5838
561.80368
445.67477
314.3557
174.52531
180.5361
331.88491
467.24209
583.97997
1181.6707
1212.8505
628.2256
508.17887
363.68347
192.56737
200.0201
394.88486
552.93528
680.90541
1238.8789
1222.8826
593.72893
482.37802
346.7586
186.50268
177.75954
321.05002
449.85467
561.73063
1193.9071
1162.5914
517.06416
409.65321
289.57349
166.70412
157.09358
271.36007
384.52039
488.97267
1133.079
1106.6566
469.69698
368.54706
260.94655
149.51777
144.56138
252.46144
356.75915
454.98922
1079.5282
1053.8104
443.12653
347.69023
246.50037
141.16151
138.4121
241.60423
340.00598
432.8722
1030.0761
1008.0494
423.56287
333.02831
237.14136
136.06814
134.01939
232.92524
326.49998
414.91276
987.53873
968.39177
406.79377
320.32545
228.9052
132.18253
130.5116
225.06707
314.46987
399.14315
950.45674
933.59946
391.92061
308.915
221.40773
128.98059
127.57008
217.92607
303.64687
385.09398
917.70525
902.67525
378.63203
298.64866
214.61663
126.26422
125.04988
211.47121
293.90291
372.50573
888.42429
874.87886
366.68692
289.39071
208.47948
123.91569
122.8522
205.63146
285.09521
361.15097
861.97536
849.65834
355.87458
280.99958
202.917
121.85143
120.90663
200.32656
277.0889
350.83702
837.87919
826.59519
346.01961
273.34901
197.85105
120.01198
119.1627
195.48276
269.7681
341.40644
815.76874
805.36608
336.98216
266.33444
193.21388
118.35447
117.58371
191.03774
263.03775
332.73313
795.35722
785.71513
328.64741
259.8687
188.94797
116.84719
116.14218
186.93904
256.81911
324.7144
776.41586
767.43729
320.92419
253.88142
185.00601
115.46635
114.81742
183.14368
251.0482
317.26737
758.75959
750.36474
313.73579
248.31327
181.34809
114.1936
113.593
179.61468
245.67027
310.32162
742.23599
734.35822
307.01852
243.11448
177.9404
113.01424
112.4558
176.32134
240.64029
303.81963
726.71754
719.30102
300.71959
238.24384
174.75501
111.91662
111.39524
173.23754
235.91968
297.71204
712.09694
705.09383
294.79184
233.66411
171.7665
110.89043
110.4001
170.33953
231.47375
291.95495
698.28331
705.27288
294.8752
233.72977
171.80955
110.90356
111.4091
173.28347
235.98962
297.80067
712.28356
719.49771
300.81437
238.31866
174.80422
111.9313
112.47136
176.37391
240.72011
303.92068
726.92533
734.57813
307.12668
243.20004
177.99684
113.03084
113.61072
179.67537
245.76212
310.43751
742.46917
750.61288
313.86068
248.41241
181.41368
114.21262
114.83791
183.2148
251.1554
317.40215
759.02429
767.72015
321.07034
253.99785
185.08335
115.48849
116.16623
187.02352
256.94598
324.87335
776.71867
786.0398
328.82074
260.00732
189.04044
116.87341
117.61239
191.13913
263.18926
332.92206
795.70541
805.73987
337.18896
266.50087
193.32571
118.38606
119.19757
195.60644
269.9516
341.63373
816.17022
827.02625
346.26971
273.55158
197.98815
120.05055
120.94926
200.47848
277.31231
351.11178
838.34137
850.15316
356.17685
281.24646
203.08571
121.8986
122.90437
205.81917
285.36837
361.48392
862.50394
875.4416
367.0531
289.6926
208.68809
123.97317
125.11299
211.70284
294.23584
372.90718
889.02056
903.3033
379.07066
299.01465
214.87296
126.33292
127.6441
218.20839
304.04709
385.5705
918.36159
934.27835
392.43424
309.34928
221.71624
129.05913
130.59311
225.40052
314.93583
399.69044
951.14983
969.08742
407.36724
320.81679
229.25923
132.26402
134.096
233.29074
327.0046
415.49913
988.22129
1008.6991
424.14291
333.52841
237.50551
136.13199
138.45491
241.95659
340.48262
433.42588
1030.6695
1054.3057
443.6474
348.13949
246.84494
141.1888
144.58261
252.86653
357.22195
455.50535
1079.8753
1106.9762
470.34548
369.20625
261.62909
149.50386
157.42152
274.22198
386.11424
490.27449
1133.2122
1161.6161
518.55306
410.71475
289.98335
167.56842
176.22568
321.80538
450.94788
565.08001
1192.8159
1219.3652
570.81845
463.65599
333.44465
179.53587
198.60843
392.52027
549.44661
675.83639
1235.0782
1208.4186
610.85701
487.15377
344.97334
181.76381
186.16571
350.38853
491.22573
612.54352
1178.5128
1146.0107
564.95677
451.36244
319.88122
177.87343
167.07747
301.21773
423.3443
533.34833
1116.0555
1088.706
509.94328
403.04825
285.9172
158.06237
152.19264
274.63723
388.17096
492.12234
1060.7595
1034.5632
478.02072
377.03169
267.1674
148.21988
145.10544
261.2171
367.87085
466.1126
1010.5423
988.36215
455.51316
359.76144
255.93792
142.51561
140.28527
251.06809
352.31844
445.80833
967.80099
948.67087
436.79879
345.37802
246.50304
138.30611
136.51888
242.1948
338.8616
428.37557
930.79764
914.03262
420.46766
332.72265
238.11959
134.8879
133.38754
234.26224
326.92769
413.02142
898.25079
883.34651
405.99157
321.44723
230.60818
131.99845
130.70576
227.1436
316.25551
399.33947
869.23007
855.82504
393.03063
311.32798
223.8542
129.49703
128.36238
220.72737
306.64348
387.03515
843.06568
830.89524
381.32597
302.18175
217.7503
127.29333
126.28299
214.91202
297.92557
375.87976
819.26417
808.129
370.67504
293.85845
212.20174
125.32544
124.41561
209.61016
289.9663
365.69328
797.45133
787.19718
360.91767
286.23606
207.12856
123.54909
122.72218
204.74928
282.65639
356.33346
777.33627
767.84135
351.92703
279.21665
202.46527
121.93162
121.17451
200.27008
275.90743
347.68626
758.68797
749.8542
343.60063
272.72051
198.15821
120.44843
119.7511
196.12409
269.64781
339.65989
741.32014
733.06721
335.85511
266.68241
194.1631
119.08058
118.43495
192.27044
263.81735
332.17759
725.07882
717.33985
328.62049
261.04739
190.44258
117.81276
117.21238
188.67511
258.36618
325.17607
709.83632
702.5553
321.83817
255.7691
186.96491
116.63251
116.07155
185.30782
253.25035
318.59998
695.48512
688.61614
315.45689
250.80661
183.70176
115.5284
116.55997
186.87242
255.61136
321.57364
693.79531
700.71119
324.77668
258.10375
188.51211
117.11167
117.68161
190.20345
260.67223
328.07652
707.82739
715.15408
331.47948
263.32226
191.95035
118.27127
118.88162
193.75508
266.05731
334.99036
722.70347
730.4882
338.61636
268.88334
195.62181
119.51421
120.17031
197.55348
271.80483
342.3635
738.5223
746.82087
346.24005
274.8285
199.55479
120.85177
121.56025
201.62977
277.96032
350.25369
755.40042
764.27896
354.41415
281.20792
203.78366
122.29785
123.06676
206.02122
284.57852
358.73068
773.4765
783.01461
363.21432
288.08081
208.34849
123.86955
124.70905
210.77174
291.72421
367.87718
792.9174
803.21159
372.73268
295.519
213.29782
125.58855
126.51175
215.93429
299.47639
377.79521
813.92691
825.09679
383.08062
303.60839
218.68896
127.4829
128.50717
221.57141
307.92943
388.60771
836.75876
848.95529
394.39648
312.45416
224.59071
129.59016
130.73913
227.75789
317.19974
400.46981
861.73484
875.15306
406.85333
322.18461
231.08413
131.96242
133.27075
234.58286
327.43096
413.57764
889.27431
904.1736
420.67689
332.96252
238.2678
134.67698
136.19764
242.15502
338.80761
428.19169
919.93897
936.67457
436.16997
344.99829
246.2618
137.85373
139.67243
250.60858
351.57389
444.67041
954.50427
973.57756
453.76725
358.58407
255.22209
141.68884
143.95768
260.14542
366.10376
463.56637
994.07134
1016.1832
474.24386
374.26664
265.44215
146.56809
149.63948
271.21943
383.37883
486.15594
1040.1615
1066.2913
500.08871
394.29398
278.46695
153.50825
159.14302
289.05183
408.47477
517.34332
1093.9807
1120.8941
539.19942
426.66786
300.65591
167.53748
177.34177
321.10788
454.07921
570.23566
1151.2005
1182.3297
599.30163
480.75622
342.29637
183.62899
192.67946
366.40855
510.99525
630.70513
1212.1766
1238.5298
684.12656
556.26029
397.62456
200.98803
1232.5062
781.7404
640.77146
461.81396
228.09777
206.27884
412.68719
576.16058
711.59533
1268.0086
1279.2062
631.49924
514.76351
371.20802
195.50966
185.34824
352.58784
496.31376
620.5779
1240.5037
1212.2689
622.93764
496.92641
351.81463
184.37939
182.80124
341.35062
481.36585
601.53101
1180.5221
1146.6969
559.16092
445.13177
314.65662
174.73791
165.09196
297.13689
418.85827
529.25495
1115.9461
1088.3571
507.25047
400.2036
283.4299
156.80847
151.38556
273.14676
386.32613
490.28721
1060.2853
1034.051
476.71665
375.76927
266.18626
147.68387
144.72881
260.49997
366.95373
465.14244
1010.0402
987.89108
454.76687
359.07088
255.4059
142.24297
140.0833
250.66347
351.78477
445.2206
967.36764
948.27656
436.32821
344.95783
246.1892
138.15385
136.40182
241.94656
338.52495
427.99305
930.44088
913.7104
420.15215
332.44834
237.91951
134.79605
133.3145
234.09868
326.70117
412.75802
897.95992
883.08376
405.7689
321.25757
230.47247
131.93964
130.65775
227.02967
316.09499
399.14948
868.99255
855.61015
392.86725
311.19098
223.75773
129.45747
128.32947
220.64493
306.52564
386.89373
842.87112
830.71885
381.20279
302.07968
217.67932
127.26577
126.25973
214.85028
297.83628
375.77142
819.1039
807.98311
370.57918
293.77975
212.14758
125.30552
124.39846
209.56253
289.89687
365.60845
797.31842
787.07585
360.84217
286.17445
207.08644
123.53425
122.70927
204.71187
282.60145
356.2659
777.22532
767.73966
351.86624
279.1674
202.43185
121.92028
121.16456
200.24016
275.86321
347.63153
758.59475
749.76839
343.55105
272.68054
198.13125
120.43964
119.74324
196.09967
269.61154
339.6148
741.2408
732.99376
335.8139
266.64934
194.14091
119.07351
118.42853
192.25014
263.78706
332.13982
725.01079
717.27671
328.58563
261.01945
190.42389
117.80687
117.20685
188.65772
258.34021
325.14368
709.77769
702.50088
321.80802
255.74492
186.94871
116.62727
116.06654
185.29272
253.22779
318.57186
695.43484
688.56985
315.43053
250.78543
183.68753
115.52357
110.89349
171.77778
233.68089
294.81274
705.13637
712.13927
297.73347
235.93704
173.24922
111.39836
111.91944
174.76614
238.26059
300.74069
719.34414
726.76148
303.84128
240.65752
176.33272
112.45853
113.01669
177.95135
243.13129
307.03999
734.40323
742.28214
310.3437
245.68761
179.62595
113.59535
114.19568
181.35911
248.33043
313.75785
750.4121
758.80824
317.29
251.06582
183.155
114.81937
115.46801
185.01709
253.89892
320.94687
767.4871
776.46673
324.73746
256.83685
186.95021
116.14364
116.84835
188.95885
259.88625
328.67039
785.76689
795.40964
332.75602
263.05508
191.04835
117.58459
118.35506
193.22407
266.35131
337.00457
805.41883
815.82137
341.42808
269.78414
195.49222
119.16291
120.01174
197.8594
273.3637
346.03978
826.647
837.92914
350.85461
277.10111
200.33295
120.90571
121.84967
202.92076
281.00846
355.88844
849.70518
862.01747
361.15887
285.0986
205.63108
122.84917
123.9109
208.47324
289.38654
366.68637
874.91428
888.45075
372.49281
293.88736
211.45621
125.04253
126.2534
214.58962
298.61768
378.60224
902.69019
917.70582
385.04012
303.59337
217.88138
127.55419
128.9576
221.33835
308.83051
391.83393
933.58291
950.42095
399.01099
314.34137
224.96213
130.47826
132.13429
228.74994
320.13611
406.60011
968.336
987.46515
414.63696
326.2267
232.69893
133.94976
135.96888
236.8198
332.64445
423.18187
1007.9656
1029.9986
432.36196
339.4809
241.16046
138.27275
140.97433
245.90323
346.99102
442.46372
1053.7619
1079.5329
454.13547
355.83471
251.65961
144.30814
149.1433
259.96276
367.33799
468.59081
1106.8442
1133.5503
487.39489
382.85175
270.69261
156.64411
165.79995
286.51344
405.83877
513.46219
1163.0013
1194.2295
553.48302
443.35633
316.44874
175.9297
187.43107
350.40271
486.54947
597.26423
1223.4935
1239.8968
699.6773
570.02646
409.92244
204.98651
196.75081
373.04172
519.88572
640.35604
1213.8394
1181.8041
580.55725
465.29376
330.88215
180.58841
176.21753
318.88158
451.69388
569.09397
1150.836
1119.6466
536.52271
423.60409
297.68716
167.13839
158.75122
287.06609
406.05308
514.8551
1092.5125
1064.8329
497.82528
392.15227
276.72495
153.0978
149.2708
269.71962
381.52104
484.16507
1038.7246
1014.7989
472.52713
372.69524
264.21797
146.25531
143.69031
259.13063
364.77596
462.09133
992.75688
972.34361
452.49896
357.4589
254.37514
141.45939
139.47523
249.89803
350.61684
443.57749
953.35576
935.61183
435.22449
344.1798
245.66163
137.68363
136.05017
241.64413
338.10328
427.36996
918.95932
903.27261
419.95905
332.35256
237.82951
134.54838
133.15796
234.2041
326.89943
412.94735
888.44673
874.39327
406.29718
321.71873
230.75457
131.863
130.65115
227.46953
316.78936
399.97695
861.03735
848.3148
393.95856
312.09145
224.33743
129.51218
128.43788
221.34792
307.60769
388.21735
836.17021
824.55539
382.73079
303.3214
218.49072
127.42123
126.45657
215.75735
299.21905
377.48024
813.42816
802.75142
372.44853
295.28758
213.13937
125.53902
124.66448
210.62925
291.51543
367.62008
792.49211
782.62086
362.98041
287.89148
208.21976
123.8293
123.03029
205.90436
284.40604
358.51697
773.1112
763.93946
354.21862
281.05047
203.6773
122.26474
121.53014
201.53283
277.81636
350.07454
755.08405
746.52556
346.07531
274.69647
199.46615
120.82432
120.1452
197.47208
271.68324
342.21145
738.24594
730.22907
338.47538
268.77085
195.54671
119.49115
118.86034
193.68555
265.9529
334.85927
722.45973
714.9244
331.35691
263.22483
191.88562
118.25154
117.66317
190.14278
260.58071
327.96119
707.61006
700.50507
324.66687
258.01675
188.45449
117.09419
116.54308
186.81663
255.52712
321.46731
693.59884
693.79381
321.5616
255.6009
186.86474
116.5569
117.10943
188.50668
258.09626
324.76809
700.70686
707.8212
328.071
260.6677
190.20029
117.68006
118.26986
191.94785
263.31855
331.47496
715.14701
722.69615
334.98711
266.05486
193.75354
118.88035
119.5127
195.62017
268.88077
338.61304
730.48092
738.51524
342.36086
271.80293
197.55234
120.16864
120.84965
199.55364
274.82658
346.23743
746.81409
755.39391
350.25145
277.95878
201.6289
121.55771
122.29478
203.78287
281.20649
354.41196
764.27272
773.47046
358.72916
284.57777
206.021
123.06305
123.86498
208.34864
288.08048
363.21315
783.00863
792.91133
367.87644
291.72441
210.77241
124.70349
125.5817
213.29915
295.51983
372.73231
803.20517
813.91964
377.79486
299.47756
215.93615
126.50322
127.47217
218.69157
303.61003
383.08019
825.08796
836.74724
388.60609
307.93051
221.57401
128.4933
129.57232
224.59332
312.45436
394.39285
848.9396
861.71288
400.46231
317.19739
227.7594
130.71568
131.93155
231.08364
322.17819
406.83977
875.122
889.23039
413.55383
327.41677
234.57781
133.22956
134.62173
238.25511
332.93614
420.63739
904.11172
919.85256
428.12752
338.76082
242.12855
136.12277
137.75204
246.21343
344.92053
436.06934
936.55543
954.34281
444.51697
351.44965
250.52625
139.53437
141.50337
255.09193
358.39574
453.5423
973.36316
993.79369
463.25289
365.83537
259.95604
143.71377
146.26084
265.20533
373.9187
473.83812
1015.8339
1039.7376
485.68017
382.98765
271.03674
149.28322
153.09541
278.3165
393.89375
499.58313
1065.8213
1093.6512
516.90887
408.20016
289.08228
158.68196
167.30742
302.87859
426.97828
539.00364
1120.5269
1150.3993
569.0633
453.17401
320.43246
176.95577
183.03624
344.07134
482.33412
602.15517
1181.6502
1210.176
618.2296
499.77559
357.88309
187.85803
1329.1892
1381.6665
1355.8382
1223.3696
595.21087
483.88718
347.86778
187.33422
187.80859
358.27849
505.6197
632.64179
1214.1297
220.95759
447.53595
623.90016
764.53844
1229.6126
1185.5583
737.65882
597.74905
425.50447
210.64093
213.35914
431.22847
604.62777
744.1592
1185.8478
1232.1167
714.33833
576.51061
411.17399
203.17404
1313.5663
1354.1444
1412.6488
1395.5347
1257.3439
1344.4725
1328.904
1257.3353
1242.4362
1285.3315
1286.9419
1242.0874
115.5304
183.70875
250.81823
315.47285
688.64713
695.51207
318.61043
253.25784
185.31224
116.07242
116.63227
186.96619
255.772
321.84307
702.57747
709.85287
325.17678
258.36593
188.67435
117.21142
117.8109
190.43908
261.04312
328.61638
717.35043
725.08282
332.16919
263.80972
192.26472
118.43236
119.07701
194.15429
266.67031
335.84131
733.06402
741.30915
339.64095
269.63158
196.11252
119.74668
120.44292
198.14323
272.6993
343.57564
749.83509
758.65993
347.65498
275.88107
200.25164
121.16777
121.92336
202.4426
279.18414
351.88832
767.80361
777.2881
356.28652
282.617
204.72192
122.71221
123.53702
207.09591
286.18903
360.86146
787.1378
797.37989
365.62662
289.9105
209.57145
124.40091
125.30754
212.15611
293.79274
370.5966
808.04462
819.166
375.78751
297.84809
214.85806
126.26108
127.2665
217.68698
302.09116
381.21831
830.78253
842.93785
386.90968
306.53733
220.65278
128.32943
129.45666
223.76692
311.20445
392.88523
855.68168
869.07114
399.17085
316.11122
227.04095
130.65601
131.93717
230.48804
321.27955
405.79684
883.17243
898.06273
412.79671
326.73239
234.12118
133.31158
134.79349
237.95413
332.49562
420.20897
913.83248
930.58879
428.0778
338.59711
242.00021
136.40091
138.15786
246.27497
345.07115
436.45775
948.4586
967.59395
445.42097
351.96476
250.80266
140.09795
142.27916
255.63449
359.36061
455.08008
988.17246
1010.3858
465.63024
367.41832
260.87064
144.80299
147.81155
266.78882
376.50713
477.46617
1034.4777
1060.8223
491.40793
387.46754
274.13531
151.6011
157.22654
284.71046
401.81824
508.84761
1088.7828
1116.1523
531.21667
420.4013
296.73975
165.51056
174.13847
317.86933
448.35664
563.07076
1148.0041
1180.3995
585.9266
468.87313
332.86766
179.13228
186.88145
355.76826
502.72821
629.64345
1213.5557
639.90912
523.17048
380.40312
198.50115
191.07949
363.39928
501.01173
614.70279
1278.0979
1261.4452
671.18467
538.75003
382.75445
195.92838
200.08959
402.09495
566.73336
706.7738
1232.0618
1243.4273
626.39275
500.27523
355.70771
184.28991
186.88179
355.738
502.66886
629.55288
1213.2159
1180.0876
585.85228
468.82444
332.84421
179.13626
174.14094
317.83997
448.30199
562.99049
1147.7171
1115.888
531.12962
420.34028
296.70584
165.51098
157.22337
284.6691
401.75035
508.75586
1088.5322
1060.586
491.31654
387.39855
274.09218
151.59699
147.80728
266.74697
376.43989
477.37721
1034.2509
1010.1665
465.54181
367.35105
260.82827
144.79809
142.27329
255.59111
359.29263
454.99154
987.95964
967.38678
445.33274
351.89663
250.7588
140.09128
138.15046
246.23078
345.00304
436.37
948.25665
930.39159
427.99102
338.52957
241.95618
136.39289
134.7851
237.91076
332.42914
420.1236
913.63967
897.87406
412.71318
326.66735
234.07876
133.30299
131.92851
230.44673
321.2161
405.71522
882.98785
868.8905
399.09098
316.04921
227.00064
130.64733
129.44805
223.72767
311.14388
392.80705
855.50483
842.76476
386.83348
306.47835
220.61463
128.32094
127.25824
217.64993
302.03377
381.14409
830.61309
818.99986
375.71454
297.7917
214.8217
126.25293
125.29944
212.12033
293.73726
370.52483
807.88156
797.21987
365.55625
289.85601
209.53631
124.39289
123.52905
207.06129
286.13539
360.7922
786.98051
777.1332
356.21781
282.56382
204.68764
122.70428
121.91545
202.40839
279.13114
351.81993
767.65078
758.50901
347.58709
275.82833
200.21751
121.15979
120.43488
198.10934
272.64696
343.50836
749.68593
741.16135
339.57392
269.57936
196.07864
119.73853
119.06874
194.12035
266.61802
335.77422
732.91704
724.93656
332.10171
263.75704
192.23042
118.42382
117.8021
190.4045
260.99007
328.5485
717.20478
709.7077
325.10812
258.3122
188.63928
117.20226
116.62269
186.9305
255.71742
321.77337
702.43243
695.36708
318.539
253.20192
185.27566
116.06229
115.51943
183.67073
250.75993
315.39827
688.50078
681.82452
312.34892
248.39047
182.11518
114.99288
693.72891
321.53085
255.57731
186.84997
116.55222
117.10202
188.485
258.06357
324.72694
700.63311
707.73671
328.02036
260.62705
190.17302
117.67052
118.25818
191.91473
263.26968
331.41444
715.04987
722.58427
334.91622
265.99742
193.71444
118.86658
119.49676
195.57455
268.81397
338.53079
730.35268
738.3689
342.26627
271.72593
197.4996
120.15043
120.829
199.49285
274.73812
346.12903
746.64793
755.20613
350.12764
277.8575
201.55912
121.53442
122.26861
203.70281
281.09068
354.27073
764.06135
773.23309
358.56864
284.4458
205.92955
123.03388
123.83257
208.24441
287.93057
363.0313
782.74307
792.61498
367.67051
291.55412
210.65358
124.66755
125.54203
213.16383
295.32658
372.49937
802.87534
813.55348
377.53149
299.25817
215.78182
126.45952
127.42428
218.51551
303.36091
382.78237
824.68233
836.29912
388.26954
307.64774
221.3732
128.4411
129.51575
224.36398
312.13325
394.01265
848.4459
861.17081
400.03286
316.83266
227.49728
130.65497
131.86719
230.78396
321.76406
406.35515
874.52917
888.58511
413.00707
326.94651
234.23502
133.16239
134.55304
237.86272
332.40238
420.02151
903.41339
919.10242
427.43449
338.15511
241.67905
136.05474
137.68803
245.69874
344.23416
435.29135
935.75711
953.50311
443.64607
350.6731
249.93695
139.47911
141.46262
254.41647
357.51768
452.56954
972.49279
992.90771
462.16347
364.83687
259.17418
143.69254
146.2565
264.26513
372.75945
472.60153
1014.9513
1038.8812
484.24282
381.59003
269.77383
149.27098
153.09632
276.7854
392.2274
497.90804
1064.9968
1092.6888
514.94471
406.13601
287.13213
158.74707
167.12973
297.7628
423.69235
536.61838
1119.8286
1151.0338
569.2151
451.79635
318.96015
176.20378
180.55366
330.92981
465.35594
580.63192
1182.0386
1214.1124
640.45236
519.96645
373.08828
196.70501
204.97091
410.04236
570.27138
699.96052
1240.228
1223.7328
597.50768
486.76025
350.55508
187.41016
184.35044
352.11584
497.26138
623.27433
1212.3977
1208.4237
610.70152
487.00365
344.86149
181.6319
179.48481
333.36382
463.55272
570.69812
1219.2513
1210.0043
618.08977
499.66612
357.80326
187.82725
192.6703
366.16358
510.7043
630.38061
1211.8988
1223.0415
594.92967
483.64152
347.67109
187.35154
187.79123
358.01078
505.32455
632.32711
1213.7548
1180.3554
580.73143
464.33812
329.2624
178.15262
173.30985
315.45181
445.82127
560.91636
1148.0648
1116.3112
530.72133
419.62993
295.95029
165.24168
157.0814
284.39467
401.54809
508.70524
1088.9179
1060.9283
491.39964
387.38538
274.01283
151.53415
147.7852
266.75557
376.51196
477.52059
1034.5737
1010.4752
465.7115
367.46401
260.8838
144.79647
142.28469
255.67114
359.42626
455.17274
988.25426
967.66668
445.5169
352.03961
250.8515
140.11156
138.17612
246.32858
345.14778
436.55106
948.52099
930.6395
428.16439
338.67045
242.0534
136.42103
134.81357
238.00362
332.56246
420.28624
913.87065
898.08801
412.8635
326.79112
234.1653
133.33048
131.95428
230.52601
321.32944
405.85264
883.18509
869.07164
399.21562
316.15203
227.0725
130.67103
129.46954
223.79231
311.2366
392.91958
855.67076
842.91646
386.93465
306.5616
220.67252
128.34031
127.27549
217.70162
302.10836
381.23495
830.75162
819.12641
375.79638
297.85881
214.86811
126.26837
125.3133
212.1619
293.79752
370.59841
807.99713
797.32536
365.62239
289.91007
209.57349
124.40523
123.54006
207.09456
286.18386
360.85158
787.07687
777.22128
356.27125
282.60732
204.71737
122.7141
121.92415
202.43502
279.17024
351.86814
767.73138
758.58298
347.63085
275.86375
200.24158
121.16756
120.44181
198.13103
272.679
343.54798
749.75371
741.22361
339.60976
269.60834
196.09827
119.74479
119.07435
194.13801
266.64423
335.80675
732.97445
724.98958
332.13123
263.78079
192.2464
118.42884
117.80656
190.41893
261.01161
328.57539
717.25409
709.75359
325.13258
258.33173
188.6523
117.2062
116.62616
186.94229
255.73517
321.79566
702.47535
695.40741
318.5593
253.21806
185.28636
116.06538
115.52244
183.68053
250.77489
315.41709
688.53889
681.85988
312.36486
248.40272
182.12283
114.99636
688.67286
315.4855
250.82819
183.71523
115.53209
116.07466
185.31963
253.26905
318.62474
695.53986
702.60791
321.86042
255.78594
186.97555
116.63535
117.21508
188.68488
258.38154
325.19627
709.88673
717.38833
328.63927
261.06168
190.45171
117.81537
118.43742
192.27883
263.83046
332.19484
725.12527
733.11148
335.8708
266.69433
194.17075
119.0829
119.75323
196.131
269.65854
339.67411
741.36243
749.89444
343.61317
272.72987
198.16421
120.45027
121.17604
200.2751
275.91523
347.6969
758.72611
767.87727
351.93556
279.22275
202.46921
121.93272
122.72264
204.75196
282.66049
356.33959
777.36989
787.22854
360.92102
286.23785
207.12972
123.54865
124.41398
209.60955
289.96534
365.69333
797.48043
808.15605
370.67139
293.85432
212.19899
125.32217
126.27741
214.90644
297.91737
375.87139
819.28926
830.91873
381.3121
302.16863
217.74119
127.28457
128.3494
220.71375
306.62428
387.01467
843.08809
855.84706
393.0021
311.30117
223.83483
129.47848
130.67982
227.11676
316.21905
399.30092
869.25279
883.37137
405.94054
321.39856
230.57179
131.96268
133.33847
234.21313
326.86311
412.95462
898.2797
914.06809
420.38062
332.63714
238.05339
134.82086
136.42744
242.1056
338.74853
428.26261
930.8431
948.73109
436.65289
345.22885
246.38291
138.18123
140.11513
250.9086
352.12448
445.62304
967.88396
988.47952
455.28341
359.51488
255.73086
142.2862
144.79576
260.94734
367.55799
465.82836
1010.7099
1034.82
477.64696
376.61455
266.82607
147.78286
151.53213
274.10149
387.50436
491.54253
1061.1897
1089.2026
508.87184
401.68913
284.49611
157.07944
165.24599
296.09296
419.81273
530.92153
1116.6041
1148.3753
561.13921
446.01869
315.61082
173.31092
178.15618
329.46946
464.58689
581.00894
1180.6924
1194.4008
542.21421
433.91159
309.5347
173.54199
164.78897
285.1956
403.69722
511.06974
1163.9903
1134.284
487.21169
382.1876
269.00003
156.60021
149.46717
260.4802
368.26874
469.79321
1107.9356
1080.805
455.77541
357.28124
252.68162
144.73394
141.4337
247.01438
348.47529
444.11508
1055.0406
1031.2469
433.85294
340.81272
242.16165
138.69082
136.32108
237.66275
333.77562
424.465
1009.1509
988.56853
415.72072
327.16831
233.39127
134.23963
132.3719
229.31682
320.91739
407.51164
969.35061
951.34726
399.78033
314.9932
225.42968
130.67409
129.12047
221.7282
309.37926
392.48778
934.42517
918.47036
385.60015
304.05979
218.21016
127.69103
126.36942
214.86967
299.0177
379.08566
903.38399
889.08094
372.91306
294.23319
211.69694
125.14168
123.99619
208.68181
289.68779
367.05425
875.48758
862.54002
361.48251
285.3626
205.81306
122.92301
121.91399
203.08061
281.24122
356.17477
850.18259
838.3666
351.10967
277.30769
200.4742
120.96203
120.0613
197.98511
273.54832
346.26851
827.04908
816.19185
341.63364
269.94959
195.60445
119.20665
118.3938
193.32481
266.50036
337.19024
805.76124
795.72702
332.92472
263.1901
191.13923
117.61901
116.87908
189.04142
260.00938
328.82466
786.06213
776.74195
324.87866
256.9493
187.02535
116.17113
115.49267
185.08573
254.00203
321.07664
767.74451
759.04994
317.40973
251.16074
183.218
114.84159
114.2158
181.41726
248.41838
313.86907
750.63966
742.49704
310.44737
245.76945
179.6799
113.61367
113.03353
178.00182
243.20801
307.13732
734.60675
726.95476
303.93317
240.72988
176.38026
112.47421
111.93426
174.81145
238.32965
300.82844
719.5281
712.31483
297.81832
236.00387
173.29313
111.4127
110.9081
171.82167
233.74768
294.89739
705.30524
705.24793
294.86279
233.71941
171.80235
110.90062
111.40441
173.27174
235.97236
297.77966
712.24924
719.45312
300.78566
238.29527
174.78832
111.92516
112.46381
176.35387
240.69064
303.88435
726.8693
734.50993
307.08239
243.16409
177.97237
113.02181
113.60015
179.64609
245.71915
310.38465
742.38775
750.51666
313.79816
248.36158
181.37902
114.2004
114.82394
183.17428
251.09603
317.3292
758.91188
767.59012
320.98573
253.92892
185.03629
115.47263
116.14828
186.96915
256.86642
324.77579
776.56944
785.86997
328.70884
259.91592
188.97791
116.85314
117.58957
191.06753
263.08477
332.79439
795.51343
805.52409
337.04362
266.38165
193.24381
118.36036
119.16867
195.51296
269.81587
341.46869
815.92883
826.75758
346.08273
273.39738
197.88168
120.01808
120.91283
200.35748
277.13765
350.90058
838.04381
849.82543
355.93895
281.04905
202.94845
121.85781
122.85882
205.66377
285.14584
361.21681
862.14518
875.05147
366.75402
289.44235
208.51248
123.92246
125.05677
211.50487
293.95536
372.57373
888.59966
902.85335
378.70082
298.70181
214.65082
126.27113
127.57698
217.96076
303.70066
385.1635
917.88609
933.78293
391.99083
308.9694
221.44286
128.98742
130.51831
225.10264
314.5247
399.21375
950.64291
968.58052
406.86459
320.38053
228.94095
132.18896
134.02553
232.96113
326.55528
414.9837
987.73038
1008.2447
423.6332
333.08339
237.17726
136.07395
138.41754
241.63969
340.06021
432.94154
1030.2764
1054.0171
443.19375
347.74232
246.5341
141.16585
144.56341
252.49035
356.80607
455.05191
1079.7448
1106.8863
469.75547
368.58798
260.96848
149.51659
157.08978
271.37903
384.55899
489.03109
1133.3288
1162.8689
517.12839
409.69541
289.59481
166.69938
177.75107
321.06288
449.8911
561.79161
1194.2138
1223.2217
593.80203
482.42376
346.76426
186.48839
200.01441
394.89803
553.06589
681.08219
1239.2623