/*--------------------------------*- C++ -*----------------------------------*\
  =========                 |
  \\      /  F ield         | OpenFOAM: The Open Source CFD Toolbox
   \\    /   O peration     | Website:  https://openfoam.org
    \\  /    A nd           | Version:  7
     \\/     M anipulation  |
\*---------------------------------------------------------------------------*/
FoamFile
{
    version     2.0;
    format      ascii;
    class       volScalarField;
    location    "430";
    object      omega;
}
// * * * * * * * * * * * * * * * * * * * * * * * * * * * * * * * * * * * * * //

dimensions      [0 0 -1 0 0 0 0];

internalField   nonuniform List<scalar> 
24789
(
96278.312
30010.585
16912.843
12392.574
2050.2428
2058.1817
12432.264
16960.396
30075.487
96499.587
96727.163
30142.815
17009.647
12473.245
2066.2705
2074.517
12515.385
17060.402
30212.645
96961.752
97203.718
30285.097
17112.943
12558.881
2082.9233
2091.4954
12603.67
17167.166
30360.308
97453.607
97711.809
30438.456
17223.336
12649.934
2100.2382
2109.1592
12697.665
17281.43
30519.722
97978.909
98255.337
30604.302
17341.675
12747.023
2118.2623
2127.5549
12798.061
17404.127
30692.402
98541.858
98839.226
30784.291
17468.991
12850.916
2137.0421
2146.7338
12905.69
17536.388
30880.219
99148.187
99469.576
30980.509
17606.518
12962.514
2156.6374
2166.7622
13021.552
17679.584
31085.453
99804.421
100153.84
31195.463
17755.787
13082.941
2177.1148
2187.7077
13146.901
17835.414
31310.934
100519.18
100901.92
31432.401
17918.691
13213.578
2198.548
2209.6452
13283.277
18006.013
31560.379
101303.73
101726.62
31695.533
18097.66
13356.182
2221.0036
2232.6296
13432.677
18194.151
31838.616
102173.01
102645.91
31990.568
18295.878
13513.012
2244.5172
2256.6515
13597.683
18403.521
32152.397
103148.76
103685.9
32325.449
18517.672
13687.081
2268.9988
2281.4982
13781.896
18639.311
32511.292
104262.78
104886.31
32712.002
18769.418
13882.789
2294.0392
2306.441
13990.909
18909.593
32930.091
105565.07
106310.1
33169.33
19062.056
14107.875
2318.4226
2329.5305
14236.53
19230.589
33435.434
107138.29
108075.75
33735.059
19420.76
14381.377
2339.0138
2345.8963
14551.835
19645.147
34076.073
109153.32
110481.24
34547.176
19937.896
14762.755
2348.3455
2338.1657
14986.481
20286.443
35242.259
112405.19
115187.55
35759.64
20517.86
15107.958
2301.7227
2232.1107
15052.94
20473.447
35725.994
117853.14
119831.12
36566.001
20966.117
15401.222
2203.1017
2193.1467
15556.062
21445.852
37801.593
125521.24
131411.01
39225.398
22025.93
15781.379
2245.3311
2072.8994
15964.007
21634.238
37764.231
124301.62
121246.97
36652.3
21052.054
15558.212
2050.4854
2070.4073
15658.346
21014.665
36427.933
117624.19
114070.9
35669.142
20704.094
15495.566
2099.5356
2116.8713
15256.449
20341.473
35005.864
111266.75
109404.7
34341.047
19964.178
14990.406
2119.7953
2115.6976
14763.129
19661.882
33869.616
108109.61
107051.21
33511.058
19428.181
14582.343
2109.1624
2100.9893
14431.97
19234.882
33211.345
106140.64
105338.33
32950.817
19066.849
14300.847
2091.6975
2081.8047
14183.273
18916.912
32719.643
104613.84
103950.48
32509.846
18779.9
14075.338
2071.5942
2061.2375
13974.873
18652.958
32316.975
103338.92
102772.28
32138.451
18534.275
13880.466
2050.8477
2040.5018
13791.409
18422.849
31972.305
102244.93
101752.08
31817.17
18317.785
13707.024
2030.2522
2020.1366
13626.982
18218.556
31671.78
101289.56
100853.99
31535.175
18124.507
13550.777
2010.1748
2000.3812
13478.185
18035.256
31406.385
100442.38
100052.19
31284.734
17950.299
13408.808
1990.7596
1981.3153
13342.489
17869.364
31169.519
99681.379
99328.065
31060.201
17792.05
13278.896
1972.0461
1962.9532
13217.914
17718.148
30956.303
98990.701
98667.907
30857.349
17647.349
13159.288
1954.0309
1945.2782
13102.903
17579.46
30762.989
98358.424
98061.342
30672.899
17514.275
13048.576
1936.6894
1928.2623
12996.186
17451.598
30586.737
97775.673
97500.615
30504.303
17391.317
12945.625
1919.992
1911.8732
12896.753
17333.207
30425.27
97235.471
96979.472
30349.494
17277.231
12849.519
1903.9038
1896.0789
12803.757
17223.149
30276.728
96732.214
96493.083
30206.822
17170.993
12759.479
1888.3958
1880.8518
12716.495
17120.495
30139.602
96261.724
96037.516
30074.926
17071.771
12674.886
1873.4464
1866.1817
12634.454
17024.556
30012.739
95820.006
95608.329
29952.69
16978.948
12595.287
1859.0419
1866.1765
12635.456
17025.763
30014.31
95826.435
96043.904
30076.52
17073.006
12675.906
1873.4356
1880.8259
12717.539
17121.753
30141.205
96268.177
96499.821
30208.514
17172.327
12760.576
1888.3549
1896.0227
12804.923
17224.57
30278.543
96739.372
96987.114
30351.468
17278.769
12850.77
1903.8296
1911.7751
12898.093
17334.863
30427.42
97243.584
97509.329
30506.619
17393.106
12947.065
1919.8629
1928.0965
12997.733
17453.538
30589.273
97785.076
98071.503
30675.64
17516.37
13050.233
1936.4774
1945.009
13104.674
17581.717
30765.965
98369.5
98679.942
30860.58
17649.784
13161.188
1953.6933
1962.5324
13219.935
17720.763
30959.781
99003.921
99342.629
31063.989
17794.859
13281.044
1971.5269
1980.6782
13344.748
17872.361
31173.592
99697.4
100069.86
31289.121
17953.491
13411.188
1989.9844
1999.4445
13480.662
18038.636
31411.102
100461.83
100875.44
31540.19
18128.05
13553.329
2009.0527
2018.8014
13629.564
18222.23
31677.07
101313.07
101777.71
31822.611
18321.511
13709.587
2028.6762
2038.6597
13793.875
18426.556
31977.821
102272.72
102802.09
32143.853
18537.841
13882.747
2048.7183
2058.8086
13976.852
18656.245
32322.074
103370.36
103982.89
32514.279
18782.699
14076.879
2068.8634
2078.79
14184.254
18919.027
32722.984
104646.03
105368.3
32952.657
19068.229
14301.32
2088.4488
2097.6024
14432.439
19235.986
33211.628
106165.16
107066.98
33511.931
19430.944
14584.398
2105.7939
2112.5119
14769.781
19670.329
33876.607
108118.55
109410.06
34371.06
19987.873
15007.59
2117.1331
2115.7077
15293.628
20402.3
35106.893
111257.67
114180.92
35938.839
20785.945
15527.065
2097.1594
2063.4405
15589.078
20947.888
36370.493
117776.73
120702.55
36620.134
20996.448
15442.456
2043.9126
2060.96
16366.604
21986.857
38128.559
122456.84
131853.54
39446.977
22124.344
15874.234
2235.3611
2157.9521
15321.186
21069.211
36902.762
121366.68
122443.56
36411.312
20486.802
14748.02
2191.0443
2229.1938
15104.066
20607.606
36229.22
119593.24
115926.45
36098.128
20655.217
15208.055
2285.213
2317.9063
15065.547
20364.349
35332.305
112745.31
110630.04
34577.242
19978.142
14817.664
2326.6843
2325.3089
14595.897
19671.399
34084.733
109176.58
108023.8
33712.833
19433.291
14416.448
2319.6346
2311.1752
14265.79
19235.359
33401.756
107055.73
106214.89
33132.313
19063.3
14134.065
2300.9853
2289.8311
14015.52
18909.271
32892.43
105463.01
104779.37
32674.238
18768.215
13906.432
2278.1663
2266.2704
13804.79
18637.43
32473.479
104151.59
103570.72
32287.513
18515.184
13709.299
2254.326
2242.4491
13619.257
18400.444
32114.288
103029.98
102524.24
31952.313
18292.259
13533.97
2230.7059
2219.1426
13453.082
18190.077
31800.34
102049.13
101601.11
31657.303
18093.203
13376.083
2207.7797
2196.6334
13302.743
18001.26
31522.306
101177.11
100774.77
31394.606
17913.722
13232.656
2185.7059
2175.0012
13165.66
17830.312
31273.535
100392.02
100027.01
31158.565
17750.635
13101.438
2164.5163
2154.2501
13039.853
17674.454
31049.141
99678.106
99344.032
30944.859
17601.463
12980.651
2144.196
2134.35
12923.718
17531.464
30845.298
99023.586
98715.694
30750.139
17464.234
12868.862
2124.7045
2115.2547
12815.965
17399.575
30659.039
98419.54
98134.305
30571.772
17337.354
12764.904
2105.9924
2096.9156
12715.556
17277.375
30488.053
97859.248
97593.66
30407.669
17219.559
12667.847
2088.016
2079.2895
12621.629
17163.692
30330.408
97337.023
97088.742
30256.102
17109.784
12576.9
2070.7318
2062.3385
12533.483
17057.581
30184.558
96848.335
96615.198
30115.631
17007.166
12491.434
2054.1072
2046.0243
12450.542
16958.249
30049.162
96388.878
96504.962
30076.55
16961.388
12433.08
2058.2328
2066.3104
12474.195
17010.804
30144.337
96733.707
96969.165
30214.487
17061.862
12516.557
2074.54
2082.9296
12560.107
17114.464
30287.174
97211.968
97462.523
30362.616
17168.911
12605.054
2091.4816
2100.1999
12651.372
17225.151
30440.969
97721.479
97989.309
30522.467
17283.443
12699.239
2109.09
2118.1564
12748.682
17343.807
30607.285
98266.709
98554.232
30695.655
17406.451
12799.846
2127.4043
2136.8404
12852.814
17471.477
30787.815
98852.697
99162.955
30884.093
17539.083
12907.717
2146.4668
2156.292
12964.698
17609.44
30984.723
99485.825
99822.336
31090.088
17682.737
13023.876
2166.3214
2176.5624
13085.448
17759.227
31200.543
100173.66
100541.14
31316.515
17839.106
13149.546
2187.0185
2197.694
13216.443
17922.737
31438.531
100926.26
101330.87
31567.092
18010.34
13286.284
2208.5916
2219.7145
13359.424
18102.401
31702.926
101756.94
102207.03
31846.767
18199.237
13436.072
2231.0542
2242.5991
13516.67
18301.459
31999.534
102684.07
103191.83
32162.313
18409.524
13601.513
2254.3197
2266.1686
13691.177
18524.252
32336.398
103734.84
104318.89
32523.457
18646.4
13786.163
2278.0628
2289.8698
13887.32
18777.194
32725.533
104951.23
105641.24
32945.26
18918.047
13995.641
2301.3801
2312.2899
14112.986
19071.501
33186.532
106400.91
107249.11
33455.754
19241.463
14242.226
2322.1242
2330.1119
14388.057
19433.952
33760.67
108216.65
109344.09
34109.753
19660.844
14559.239
2335.2341
2335.7342
14769.373
19953.9
34585.507
110748.82
112765.87
35278.055
20301.88
14991.804
2324.1911
2287.7023
15109.402
20537.77
35829.633
115710.95
118969.25
35909.783
20496.77
15018.595
2222.6455
2195.4207
15194.427
20854.104
36595.35
120871.05
125427.05
37805.178
21423.605
15517.194
2178.3774
2226.3369
15690.101
21940.116
39175.609
131647.52
2868.3035
14674.852
21395.954
39326.3
135096
130057.73
39711.256
22332.835
15881.334
2328.8666
2055.7072
16912.058
22995.93
40070.6
129212.4
124145.76
38203.399
21956.71
16052.67
2162.07
2151.2958
15255.216
21073.593
37016.401
122336.13
121339.28
36382.978
20644.999
14993.765
2185.4997
2236.9788
15204.36
20695.391
36217.222
118538.87
115236.88
36075.477
20692.861
15251.5
2296.9084
2328.6738
15082.668
20374.629
35303.689
112298.19
110337.08
34567.195
19985.015
14827.616
2335.9762
2332.9238
14602.855
19676.829
34081.028
108979.51
107883.87
33707.831
19436.32
14421.027
2325.7183
2315.9912
14268.653
19236.763
33396.895
106953.5
106138.49
33127.606
19063.578
14135.686
2304.7793
2292.8098
14016.249
18908.781
32887.929
105405.01
104734.49
32670.147
18767.308
13906.588
2280.5059
2268.115
13804.596
18636.324
32469.816
104116.13
103542.36
32284.203
18513.971
13708.878
2255.7846
2243.6059
13618.705
18399.212
32111.347
103007.06
102505.41
31949.692
18291.047
13533.344
2231.6269
2219.8769
13452.412
18188.892
31797.962
102033.47
101588
31655.171
18092.071
13375.398
2208.3662
2197.1023
13302.063
18000.192
31520.403
101166.15
100765.55
31392.921
17912.731
13232.002
2186.0809
2175.3019
13165.039
17829.397
31272.032
100384.05
100020.09
31157.195
17749.779
13100.842
2164.7574
2154.4435
13039.288
17673.662
31047.908
99672.1
99338.772
30943.748
17600.73
12980.119
2144.3501
2134.4722
12923.22
17530.786
30844.288
99018.941
98711.643
30749.217
17463.605
12868.395
2124.7997
2115.3288
12815.532
17399.001
30658.218
98415.968
98131.1
30571.037
17336.83
12764.503
2106.0512
2096.9607
12715.183
17276.892
30487.384
97856.381
97591.081
30407.063
17219.115
12667.499
2088.0492
2079.3123
12621.305
17163.28
30329.849
97334.685
97086.588
30255.579
17109.398
12576.596
2070.7446
2062.3409
12533.198
17057.218
30184.059
96846.358
96613.411
30115.153
17006.821
12491.166
2054.0971
2046.0003
12450.295
16957.933
30048.731
96387.386
95819.872
30012.481
17024.566
12634.498
1866.1438
1873.4241
12674.93
17071.78
30074.904
96037.962
96262.471
30139.741
17120.716
12716.685
1880.8377
1888.387
12759.644
17171.177
30207.081
96494.084
96733.205
30277.062
17223.467
12804.014
1896.0742
1903.9018
12849.75
17277.504
30349.854
96980.489
97236.339
30425.667
17333.561
12897.039
1911.8739
1919.9945
12945.898
17391.635
30504.687
97501.444
97776.409
30587.155
17451.97
12996.487
1928.267
1936.6969
13048.881
17514.635
30673.304
98061.999
98358.986
30763.409
17579.833
13103.21
1945.2873
1954.0425
13159.609
17647.724
30857.75
98668.327
98990.992
30956.669
17718.495
13218.203
1962.9661
1972.0626
13279.195
17792.391
31060.513
99328.219
99681.35
31169.776
17869.629
13342.718
1981.3358
1990.7905
13409.033
17950.539
31284.888
100051.89
100441.62
31406.428
18035.357
13478.293
2000.4271
2010.2479
13550.844
18124.526
31534.997
100852.67
101287.55
31671.389
18218.358
13626.88
2020.2492
2030.4268
13706.832
18317.435
31816.452
101749.03
102240.48
31971.196
18422.171
13790.979
2040.7639
2051.2387
13879.888
18533.34
32136.824
102765.84
103329.62
32314.758
18651.614
13974.035
2061.807
2072.4098
14074.4
18778.289
32506.946
103937.07
104594.55
32716.259
18915.137
14182.329
2082.9459
2093.2517
14300.367
19065.478
32947.422
105310.45
106100.68
33208.784
19234.618
14432.523
2103.0289
2111.7169
14585.128
19430.65
33511.305
106994.87
108033.68
33875.48
19669.055
14769.505
2118.6486
2122.8024
15002.331
19979.386
34357.196
109302.49
111119.38
35048.771
20370.851
15276.094
2119.3412
2099.1631
15513.926
20736.875
35767.691
113899.98
117117.67
36333.747
21007.389
15677.672
2065.9357
2043.9334
15735.572
21177.41
36696.47
120407.47
124671.25
37943.819
21730.27
16030.789
2064.2174
2239.0069
15617.46
22019.157
39476.397
132611.08
126818.66
37983.386
21451.728
15484.242
2188.8738
2202.0644
15585.223
21167.688
36871.442
119866.31
118464.76
35803.957
20472.936
14987.107
2231.9424
2300.1231
15100.021
20524.546
35827.731
115562.96
112621.65
35283.326
20300.33
14992.095
2336.6076
2348.0572
14772.088
19953.138
34577.967
110597.55
109207.79
34090.46
19654.161
14558.365
2346.2603
2339.5902
14384.775
19424.947
33741.383
108100.47
107149.28
33437.078
19231.771
14237.759
2330.1095
2318.9342
14108.024
19061.87
33168.966
106314.7
105566.63
32929.047
18908.833
13990.549
2306.8646
2294.3781
13882.336
18768.609
32710.826
104886.45
104262.39
32510.262
18638.53
13781.409
2281.7603
2269.2
13686.717
18517.088
32324.602
103685.33
103148.18
32151.767
18403.032
13597.359
2256.8023
2244.632
13512.827
18295.581
31990.109
102645.41
102172.65
31838.32
18193.914
13432.517
2232.7148
2221.0692
13356.131
18097.56
31695.327
101726.3
101303.58
31560.29
18005.94
13283.231
2209.6929
2198.5855
13213.623
17918.73
31432.402
100901.95
100519.31
31311.01
17835.462
13146.939
2187.7357
2177.1385
13083.035
17755.895
31195.556
100153.97
99804.542
31085.593
17679.693
13021.636
2166.7807
2156.6532
12962.626
17606.652
30980.655
99469.721
99148.352
30880.39
17536.524
12905.794
2146.7451
2137.0504
12851.024
17469.119
30784.447
98839.444
98542.104
30692.57
17404.27
12798.17
2127.5587
2118.2637
12747.112
17341.781
30604.449
98255.565
97979.073
30519.864
17281.563
12697.767
2109.1582
2100.2349
12649.994
17223.406
30438.575
97712.07
97453.846
30360.413
17167.283
12603.761
2091.49
2082.9152
12558.897
17112.953
30285.152
97203.977
96961.796
30212.618
17060.455
12515.43
2074.5089
2066.2644
12473.163
17009.525
30142.665
96726.94
96498.843
30075.131
16960.27
12432.179
2058.178
2058.1676
12433.419
16961.832
30077.446
96506.985
96734.659
30144.825
17011.134
12474.435
2066.2631
2074.505
12516.62
17061.948
30214.726
96969.472
97211.833
30287.292
17114.578
12560.181
2082.9025
2091.4563
12605.055
17168.916
30362.668
97462.241
97721.002
30441.018
17225.222
12651.415
2100.177
2109.069
12699.256
17283.468
30522.498
97988.712
98265.89
30607.316
17343.885
12748.734
2118.1376
2127.388
12799.907
17406.53
30695.708
98553.266
98851.548
30787.894
17471.599
12852.901
2136.8259
2146.4556
12907.827
17539.219
30884.139
99161.471
99483.948
30984.784
17609.602
12964.823
2156.2829
2166.3149
13024.05
17682.948
31090.132
99820.079
100170.91
31200.592
17759.452
13085.631
2176.5574
2187.0179
13149.8
17839.407
31316.547
100537.77
100922.07
31438.518
17923.035
13216.7
2197.6996
2208.6112
13286.639
18010.745
31567.058
101325.47
101750.04
31702.821
18102.812
13359.797
2219.7545
2231.1303
13436.563
18199.764
31846.53
102197.96
102672.16
31999.126
18301.988
13517.194
2242.7285
2254.5333
13602.185
18410.175
32161.631
103175.99
103713.66
32335.33
18524.915
13691.935
2266.5077
2278.5921
13787.172
18647.233
32521.856
104290.31
104912.62
32723.302
18778.199
13888.635
2290.6765
2302.5854
13997.646
18919.618
32942.395
105589.2
106331.68
33183.525
19074.198
14116.193
2314.0453
2324.6079
14247.759
19246.698
33454.024
107159.06
108104.55
33764.027
19444.13
14397.583
2333.5021
2339.649
14574.896
19679.782
34128.845
109215.71
110601.28
34615.894
19982.511
14792.433
2341.2365
2331.1538
15028.005
20352.102
35339.486
112601.58
115624.8
36047.379
20614.509
15151.56
2293.9106
2226.2574
15028.556
20499.247
35914.051
118768.04
120663.7
36598.196
20808.721
15111.395
2195.6219
2178.4929
15726.52
21587.987
37868.073
124045.07
1017.9694
607.82479
820.45156
2057.8099
15951.087
21624.156
37783.737
124569.08
123432.56
37116.321
21050.795
15176.165
2163.3435
133005.93
39226.039
21526.796
14885.832
2877.7076
3193.8538
15200.143
21827.314
39445.932
131673.99
132468.1
39998.674
22036.783
15285.099
3204.7635
2502.9424
15349.717
21761.283
38912.232
128631.18
1471.7309
1267.5104
677.41573
840.62945
180.6559
191.01648
189.4844
180.6556
179.70201
184.54825
184.60295
179.34939
96389.638
30049.18
16958.337
12450.61
2046.1912
2054.2714
12491.43
17007.125
30115.604
96615.527
96848.256
30184.46
17057.607
12533.538
2062.5062
2070.9088
12576.871
17109.672
30255.923
97088.378
97336.258
30330.161
17163.616
12621.627
2079.4805
2088.2244
12667.775
17219.368
30407.323
97592.587
97857.774
30487.654
17277.189
12715.487
2097.1452
2106.2477
12764.786
17337.082
30571.283
98132.481
98417.3
30658.474
17399.271
12815.822
2115.5369
2125.0215
12868.684
17463.856
30749.45
98712.929
99020.167
30844.539
17531.041
12923.504
2134.7076
2144.6027
12980.433
17601.004
30944.006
99339.973
99673.248
31048.196
17673.929
13039.593
2154.714
2165.0518
13101.2
17750.092
31157.493
100021.06
100384.82
31272.37
17829.715
13165.395
2175.6214
2186.4301
13232.464
17913.156
31393.315
100766.03
101166.41
31520.92
18000.675
13302.57
2197.4815
2208.7795
13376.07
18092.744
31655.837
101588.02
102033.21
31798.836
18189.695
13453.185
2220.3206
2232.0991
13534.376
18292.156
31950.816
102504.75
103006.12
32112.884
18400.619
13619.967
2244.0936
2256.2686
13710.564
18515.918
32286.289
103541.24
104115.14
32472.694
18638.871
13806.728
2268.5582
2280.8519
13909.441
18770.835
32674.193
104734.1
105406.48
32893.733
18913.526
14019.941
2292.9617
2304.5896
14140.472
19070.016
33135.958
106143.95
106966.91
33408.624
19244.979
14274.389
2315.2322
2324.0643
14426.953
19445.792
33723.068
107911.13
109026
34099.618
19685.52
14606.512
2329.9989
2331.1707
14821.323
19985.433
34588.853
110414.91
112447.38
35269.608
20326.361
15038.832
2319.6749
2283.5407
15139.977
20539.507
35801.203
115382.78
118332.84
35864.844
20501.628
15044.114
2223.7326
2192.7511
15271.479
20839.884
36484.82
120093.98
123114.06
36989.134
20987.876
15144.39
2176.412
16924.767
23117.001
40519.069
130532.1
127760.27
40787.384
23480.679
17341.982
2096.4348
2389.7807
16609.142
23022.631
40404.233
126980.74
127697.28
38629.772
21676.09
15278.017
2536.3565
2192.8923
15958.873
21920.842
38156.929
123484.11
123114.95
36987.812
20986.209
15142.68
2175.3426
2191.886
15269.707
20838.393
36483.902
120095.33
118333.69
35863.956
20500.299
15042.589
2223.012
2282.9024
15138.593
20538.048
35799.674
115382.92
112446.19
35268.816
20325.27
15037.695
2319.1196
2330.68
14820.226
19984.303
34587.736
110413.37
109024.36
34098.384
19684.352
14605.421
2329.5649
2323.681
14425.915
19444.675
33721.906
107909.27
106964.7
33407.48
19243.907
14273.399
2314.8907
2304.28
14139.509
19068.955
33134.784
106141.41
105403.64
32892.548
18912.48
14018.996
2292.6737
2280.5806
13908.508
18769.786
32672.978
104731.03
104111.9
32471.436
18637.812
13805.792
2268.2982
2256.0178
13709.628
18514.85
32285.007
103537.89
103002.7
32111.582
18399.547
13619.027
2243.8476
2231.857
13533.445
18291.088
31949.519
102501.35
102029.8
31797.532
18188.63
13452.256
2220.0802
2208.5412
13375.151
18091.684
31654.547
101584.65
101163.14
31519.663
17999.634
13301.657
2197.2446
2186.1965
13231.579
17912.145
31392.111
100762.76
100381.58
31271.202
17828.729
13164.526
2175.3912
2164.8273
13100.348
17749.127
31156.344
100017.83
99669.982
31047.085
17672.985
13038.757
2154.4953
2144.3903
12979.62
17600.078
30942.908
99336.74
99016.958
30843.482
17530.144
12922.713
2134.5015
2124.8241
12867.916
17462.988
30748.445
98709.726
98414.047
30657.473
17398.418
12815.068
2115.3476
2106.0686
12764.053
17336.255
30570.319
98129.165
97854.358
30486.691
17276.375
12714.77
2096.9773
2088.0673
12667.079
17218.578
30406.397
97589.052
97332.621
30329.222
17162.83
12620.943
2079.3327
2070.7689
12576.204
17108.906
30254.99
97084.569
96844.313
30183.527
17056.844
12532.885
2062.3733
2054.1405
12490.793
17006.372
30114.657
96611.394
96385.201
30048.298
16957.635
12450.03
2046.0709
2038.1431
12410.31
16910.231
29984.087
96165.318
2058.3221
12432.693
16960.844
30075.895
96503.114
96730.439
30143.501
17010.251
12473.783
2066.4207
2074.6708
12515.957
17061.039
30213.364
96964.985
97206.792
30285.852
17113.606
12559.478
2083.0858
2091.6687
12604.279
17167.835
30361.049
97456.445
97714.384
30439.202
17224.016
12650.556
2100.4237
2109.3576
12698.298
17282.115
30520.45
97981.194
98257.404
30605.01
17342.367
12747.666
2118.4747
2127.7811
12798.717
17404.826
30693.093
98543.755
98840.895
30784.994
17469.7
12851.584
2137.2839
2146.9925
12906.368
17537.102
30880.895
99149.701
99470.996
30981.164
17607.231
12963.198
2156.91
2167.0482
13022.246
17680.3
31086.102
99805.728
100155.12
31196.079
17756.482
13083.621
2177.4142
2188.0188
13147.566
17836.086
31311.526
100520.44
100903.1
31432.927
17919.323
13214.219
2198.8698
2209.9796
13283.88
18006.582
31560.811
101304.87
101727.77
31695.885
18098.151
13356.728
2221.3553
2233.0013
13433.151
18194.543
31838.843
102174.17
102647.07
31990.627
18296.137
13513.394
2244.913
2257.0807
13597.959
18403.612
32152.222
103149.89
103687.12
32324.995
18517.567
13687.233
2269.4749
2282.0368
13781.946
18639.024
32510.588
104264.16
104888.11
32711.085
18769.006
13882.797
2294.658
2307.1556
13991.026
18909.232
32929.194
105568.06
106315.91
33168.986
19062.159
14108.43
2319.2429
2330.4493
14238.178
19232.05
33436.977
107150.12
108100.9
33741.187
19425.157
14385.156
2339.9763
2346.722
14558.773
19654.407
34090.418
109207.86
110597.08
34577.66
19953.198
14772.396
2348.6273
2337.3297
14992.238
20300.02
35281.992
112620.35
115560.23
35826.048
20523.971
15100.09
2301.0631
2233.2546
14987.527
20473.461
35804.278
118461.15
119854.08
36870.649
21168.547
15586.611
2203.5711
2190.755
15487.124
21454.977
37987.643
126794.43
132587.75
39503.12
22023.506
15618.041
2241.1729
2066.0383
16031.424
21732.346
37948.418
124657.59
122328.23
37020.81
21074.533
15253.833
2153.2676
2159.5154
15322.668
21069.36
36898.075
121323.23
122431.8
38128.444
21984.61
16365.053
2062.3784
2179.7585
15724.362
21584.5
37866.605
124023.92
125418.46
37799.887
21417.049
15513.064
2179.0873
2058.4087
15946.248
21617.393
37778.299
124572.43
123425.4
37109.689
21046.258
15173.355
2163.3305
2184.3984
15395.673
20957.301
36618.525
119772.83
118053.42
35839.688
20513.479
15063.927
2215.6196
2275.4814
15121.669
20510.127
35745.326
115288.4
112396.46
35263.251
20319.718
15031.486
2314.6277
2327.6734
14819.366
19985.564
34591.827
110391.78
109017.2
34103.245
19687.175
14606.443
2327.3643
2321.9687
14427.46
19447.656
33726.469
107909.24
106969.26
33411.324
19246.49
14274.858
2313.4685
2303.0493
14140.732
19071.088
33138.063
106149.24
105413.52
32895.439
18914.268
14020.019
2291.5934
2279.6322
13909.4
18771.348
32675.606
104741.86
104122.93
32473.873
18639.225
13806.61
2267.4705
2255.3004
13710.394
18516.146
32287.25
103548.6
103012.79
32113.657
18400.751
13619.757
2243.2307
2231.3306
13534.141
18292.206
31951.422
102510.69
102038.31
31799.28
18189.671
13452.921
2219.6338
2208.1642
13375.779
18092.647
31656.134
101592.35
101170.02
31521.11
18000.524
13302.25
2196.9286
2185.9313
13232.125
17912.948
31393.382
100768.98
100387.17
31272.353
17829.465
13165.036
2175.1697
2164.6433
13100.827
17749.807
31157.404
100022.83
99674.47
31048.031
17673.608
13039.203
2154.3432
2144.2652
12980.035
17600.651
30943.773
99340.749
99020.512
30844.27
17530.673
12923.099
2134.4001
2124.7419
12868.268
17463.463
30749.13
98712.839
98416.829
30658.096
17398.851
12815.393
2115.2827
2106.0168
12764.353
17336.645
30570.859
98131.722
97856.717
30487.215
17276.743
12715.053
2096.9364
2088.0354
12667.345
17218.918
30406.868
97591.203
97334.548
30329.653
17163.147
12621.193
2079.3068
2070.748
12576.439
17109.198
30255.379
97086.294
96845.879
30183.875
17057.111
12533.105
2062.3546
2054.1216
12490.998
17006.614
30114.958
96612.889
96386.792
30048.508
16957.822
12450.199
2046.0463
2038.1192
12410.471
16910.419
29984.369
96167.189
2046.1269
12450.717
16958.458
30049.408
96390.839
96616.736
30115.884
17007.393
12491.634
2054.2146
2062.4514
12533.685
17057.791
30184.789
96849.663
97089.945
30256.312
17109.984
12577.098
2070.8521
2079.4174
12621.823
17163.876
30330.603
97338.171
97594.706
30407.847
17219.733
12668.034
2088.1528
2097.0626
12715.734
17277.529
30488.204
97860.204
98135.185
30571.892
17337.493
12765.075
2106.1504
2115.4247
12816.13
17399.705
30659.159
98420.325
98716.347
30750.247
17464.357
12869.026
2124.8892
2134.5529
12923.879
17531.578
30845.389
99024.047
99344.209
30944.939
17601.58
12980.823
2144.4227
2154.5059
13040.044
17674.587
31049.228
99677.879
100026.3
31158.663
17750.8
13101.667
2164.8087
2175.3387
13165.937
17830.523
31273.655
100390.72
100772.56
31394.746
17914.004
13233.013
2186.1008
2197.1006
13303.211
18001.657
31522.493
101173.64
101595.95
31657.585
18093.769
13376.718
2208.337
2219.8094
13453.941
18190.891
31800.774
102041.81
102514.09
31952.972
18293.416
13535.146
2231.5055
2243.4083
13620.855
18402.066
32115.238
103016.03
103551.68
32288.906
18517.466
13711.489
2255.4786
2267.6528
13807.801
18640.658
32475.559
104125.75
104744.34
32677.351
18772.797
13910.604
2279.8174
2291.7854
14021.336
18915.85
32897.221
105415.48
106150.6
33139.899
19072.726
14142.102
2303.2472
2313.6754
14276.393
19248.327
33413.263
106969.81
107908.96
33728.644
19449.707
14429.162
2322.1814
2327.5743
14608.421
19689.608
34105.853
109016.34
110391.05
34595.321
19988.371
14821.563
2327.8581
2314.7684
15033.819
20322.701
35266.519
112395.76
115289.85
35749.241
20513.323
15123.935
2275.5141
2215.7236
15066.433
20517.145
35845.015
118053.67
119774.39
36624.036
20961.058
15398.025
2184.4609
2036.0848
15842.483
21215.407
36656.836
119648.55
116801.62
35893.141
20792.873
15559.614
2040.3851
2079.1668
15415.27
20601.123
35531.758
113885.81
111244.58
34979.243
20301.233
15215.785
2102.5787
2108.872
14970.019
19945.645
34328.979
109465.92
108210.55
33873.443
19655.898
14754.134
2106.9948
2102.1662
14579.987
19429.392
33522.544
107156.85
106238.1
33224.941
19239.221
14432.872
2095.3123
2087.0617
14303.245
19072.316
32964.128
105424.34
104688.56
32731.833
18922.47
14186.184
2078.0015
2068.4668
14078.455
18785.299
32520.779
104015.06
103394.88
32326.771
18657.985
13977.927
2058.6609
2048.7238
13883.491
18539.013
32147.186
102820.93
102287.43
31980.191
18427.211
13794.271
2038.7517
2028.8153
13709.835
18321.914
31824.28
101789.36
101322.43
31678.244
18222.354
13629.61
2018.9587
2009.214
13553.336
18128.088
31540.99
100883.04
100468.11
31411.658
18038.536
13480.561
1999.599
1990.129
13411.11
17953.394
31289.509
100075.08
99701.831
31173.868
17872.204
13344.617
1980.8093
1971.6463
13280.954
17794.732
31064.163
99346.36
99007.141
30959.916
17720.622
13219.826
1962.6392
1953.7905
13161.119
17649.673
30860.656
98682.74
98371.893
30766.014
17581.618
13104.611
1945.0967
1936.5582
13050.2
17516.291
30675.664
98073.545
97786.815
30589.308
17453.506
12997.726
1928.1707
1919.9315
12947.066
17393.065
30506.638
97510.836
97244.858
30427.458
17334.89
12898.139
1911.8393
1903.8908
12850.794
17278.754
30351.503
96988.263
96740.345
30278.576
17224.635
12805.001
1896.0831
1888.4128
12760.577
17172.275
30208.481
96500.659
96268.628
30141.044
17121.741
12717.564
1880.8799
1873.4819
12675.744
17072.731
30076.083
96043.805
95825.573
30013.421
17025.359
12635.198
1866.2086
1866.3
12635.032
17025.192
30013.436
95824.269
96041.382
30075.732
17072.488
12675.524
1873.5793
1880.9884
12717.143
17121.205
30140.386
96265.366
96496.541
30207.607
17171.713
12760.137
1888.5408
1896.233
12804.424
17223.871
30277.5
96735.497
96982.592
30350.264
17277.964
12850.197
1904.0678
1912.0483
12897.442
17333.943
30426.04
97238.376
97503.381
30505.06
17392.06
12946.323
1920.1784
1928.4606
12996.898
17452.355
30587.514
97778.325
98063.913
30673.671
17515.043
13049.3
1936.8995
1945.4979
13103.639
17580.241
30763.782
98360.957
98670.379
30858.155
17648.146
13160.042
1954.2593
1963.1884
13218.679
17718.956
30957.114
98993.206
99330.578
31061.058
17792.871
13279.674
1972.2886
1981.5631
13343.269
17870.192
31170.372
99683.896
100054.76
31285.599
17951.136
13409.603
1991.013
2000.6395
13478.984
18036.102
31407.272
100444.97
100856.67
31536.065
18125.35
13551.576
2010.4385
2020.4052
13627.774
18219.395
31672.676
101292.27
101754.81
31818.038
18318.61
13707.815
2030.5272
2040.7858
13792.193
18423.668
31973.17
102247.71
102775.08
32139.294
18535.077
13881.245
2051.1438
2061.5512
13975.64
18653.743
32317.798
103341.66
103953.16
32510.596
18780.658
14076.1
2071.9305
2082.1728
14184.03
18917.654
32720.358
104616.41
105340.75
32951.493
19067.579
14301.61
2092.1072
2101.4484
14432.73
19235.588
33211.969
106142.91
107053.37
33511.55
19428.832
14583.09
2109.6791
2116.2851
14763.862
19662.459
33869.907
108111.35
109405.48
34341.227
19964.779
14991.208
2120.4717
2117.6614
15257.423
20342.288
35006.368
111266.2
114069.14
35669.918
20705.084
15496.683
2100.439
2071.4304
15659.542
21015.58
36428.163
117621.77
121242.69
36653.198
21053.525
15559.947
2051.6602
2074.277
15966.188
21636.704
37768.144
124291.86
131393.18
39250.537
22029.902
15782.165
2247.0139
2194.6414