/*--------------------------------*- C++ -*----------------------------------*\
  =========                 |
  \\      /  F ield         | OpenFOAM: The Open Source CFD Toolbox
   \\    /   O peration     | Website:  https://openfoam.org
    \\  /    A nd           | Version:  7
     \\/     M anipulation  |
\*---------------------------------------------------------------------------*/
FoamFile
{
    version     2.0;
    format      ascii;
    class       volScalarField;
    location    "430";
    object      p;
}
// * * * * * * * * * * * * * * * * * * * * * * * * * * * * * * * * * * * * * //

dimensions      [1 -1 -2 0 0 0 0];

internalField   nonuniform List<scalar> 
24789
(
101301.13
101301.15
101301.17
101301.17
101300.97
101299.8
101299.99
101299.98
101299.96
101299.94
101298.68
101298.7
101298.72
101298.73
101298.55
101297.21
101297.38
101297.36
101297.35
101297.32
101295.87
101295.89
101295.91
101295.92
101295.78
101294.22
101294.35
101294.33
101294.31
101294.29
101292.57
101292.6
101292.62
101292.64
101292.53
101290.69
101290.77
101290.75
101290.73
101290.7
101288.66
101288.69
101288.72
101288.74
101288.67
101286.46
101286.5
101286.47
101286.44
101286.41
101283.93
101283.97
101284
101284.03
101284.02
101281.32
101281.29
101281.26
101281.23
101281.19
101278.14
101278.18
101278.22
101278.26
101278.33
101274.99
101274.87
101274.82
101274.79
101274.74
101270.94
101270.98
101271.03
101271.08
101271.26
101267.06
101266.82
101266.76
101266.71
101266.66
101261.83
101261.88
101261.94
101262.01
101262.33
101256.96
101256.55
101256.47
101256.4
101256.34
101250.09
101250.16
101250.24
101250.33
101250.84
101243.83
101243.2
101243.09
101243
101242.92
101234.62
101234.72
101234.83
101234.96
101235.73
101226.32
101225.39
101225.22
101225.09
101224.98
101213.68
101213.81
101213.97
101214.17
101215.31
101202.31
101200.94
101200.69
101200.49
101200.33
101184.36
101184.55
101184.8
101185.11
101186.76
101168
101166.01
101165.63
101165.3
101165.06
101142.14
101142.44
101142.85
101143.34
101145.69
101117.69
101115.26
101114.65
101114.12
101113.73
101074.61
101075.11
101075.79
101076.53
101078.61
101037.31
101034.1
101033.04
101032.09
101031.53
101013.23
101013.88
101015.45
101017.45
101025.26
100920.2
100914.3
100912.48
100911.74
100910.62
100312.75
100335.99
100352.09
100371.12
100546.02
100862.28
100810.2
100800.07
100790.48
100776.76
100956.04
100970.26
100976.23
100983.8
101013.58
101178.06
101136.09
101126.28
101116.01
101099.01
101463.72
101490.75
101512.63
101531.36
101539
101117.92
100925.92
100905.01
100888.65
100861.61
101004.8
101010.11
101010.52
101010.73
101022.8
100781.55
100557.75
100530.38
100504.22
100470.09
100487.63
100496.07
100499.99
100507.92
100609.72
100926.67
100919.75
100918.56
100917.93
100917.47
101011.94
101012.67
101014.04
101015.71
101023.28
101037.06
101035.09
101034.2
101033.41
101032.88
101075.77
101076.19
101076.77
101077.41
101078.99
101118.56
101116.27
101115.75
101115.3
101114.97
101143.27
101143.52
101143.86
101144.28
101146.62
101168.71
101166.63
101166.3
101166.04
101165.85
101184.9
101185.06
101185.26
101185.53
101187.29
101202.7
101201.23
101201.01
101200.85
101200.72
101213.97
101214.08
101214.22
101214.39
101215.6
101226.56
101225.57
101225.42
101225.31
101225.22
101234.82
101234.9
101234.99
101235.11
101235.92
101243.97
101243.33
101243.22
101243.15
101243.08
101250.24
101250.3
101250.36
101250.45
101250.96
101257.06
101256.67
101256.59
101256.54
101256.48
101261.96
101262.01
101262.06
101262.12
101262.42
101267.14
101266.93
101266.87
101266.83
101266.78
101271.06
101271.1
101271.14
101271.18
101271.33
101275.05
101274.97
101274.93
101274.9
101274.86
101278.25
101278.29
101278.32
101278.35
101278.39
101281.38
101281.39
101281.36
101281.33
101281.3
101284.04
101284.07
101284.09
101284.12
101284.07
101286.51
101286.59
101286.57
101286.54
101286.51
101288.76
101288.79
101288.81
101288.83
101288.72
101290.73
101290.87
101290.85
101290.83
101290.8
101292.67
101292.69
101292.71
101292.73
101292.57
101294.26
101294.44
101294.42
101294.41
101294.38
101295.96
101295.98
101296
101296.01
101295.81
101297.25
101297.46
101297.45
101297.44
101297.42
101298.77
101298.79
101298.8
101298.81
101298.59
101299.84
101300.08
101300.07
101300.06
101300.04
101301.29
101301.3
101301.31
101301.31
101301.03
101299.9
101300.15
101300.15
101300.14
101300.12
101298.84
101298.86
101298.87
101298.88
101298.65
101297.3
101297.53
101297.51
101297.5
101297.48
101296.02
101296.04
101296.05
101296.06
101295.86
101294.3
101294.48
101294.47
101294.45
101294.43
101292.71
101292.74
101292.75
101292.77
101292.6
101290.76
101290.9
101290.89
101290.87
101290.84
101288.8
101288.82
101288.84
101288.86
101288.74
101286.53
101286.62
101286.6
101286.58
101286.55
101284.07
101284.1
101284.12
101284.15
101284.09
101281.39
101281.41
101281.38
101281.36
101281.33
101278.28
101278.32
101278.34
101278.38
101278.39
101275.06
101274.99
101274.95
101274.92
101274.88
101271.08
101271.12
101271.16
101271.2
101271.33
101267.14
101266.94
101266.89
101266.85
101266.81
101261.98
101262.03
101262.08
101262.14
101262.41
101257.04
101256.68
101256.61
101256.56
101256.51
101250.26
101250.32
101250.38
101250.46
101250.94
101243.94
101243.34
101243.24
101243.17
101243.1
101234.85
101234.93
101235.01
101235.12
101235.88
101226.52
101225.58
101225.45
101225.35
101225.26
101214.02
101214.13
101214.25
101214.41
101215.57
101202.65
101201.25
101201.05
101200.9
101200.77
101184.97
101185.12
101185.31
101185.55
101187.25
101168.67
101166.66
101166.36
101166.12
101165.94
101143.31
101143.54
101143.85
101144.24
101146.52
101118.75
101116.46
101115.97
101115.55
101115.26
101076.71
101077.09
101077.63
101078.23
101079.8
101034.63
101033.4
101032.62
101031.9
101031.44
101006.27
101006.89
101008.17
101009.75
101017.05
100949.26
100943.21
100941.69
100940.74
100940.1
100559.46
100566.05
100567.3
100571.88
100629.24
100594.83
100189.43
100145.81
100106.29
100056.05
101656.8
101639.3
101623.48
101603.07
101377.87
101070.47
100928
100910.13
100897.6
100872.69
101414.9
101447.04
101470.08
101490.4
101487.16
101204.01
101252.06
101256.59
101260.51
101257.77
101532.43
101520.42
101507.85
101490.98
101341.58
100582.3
100248.78
100204.82
100162.56
100111.64
100495.47
100505.4
100508.43
100515.04
100590.56
100931.5
100925
100923.41
100922.75
100921.76
101000.46
101001.03
101002.25
101003.8
101010.04
101031.13
101029.38
101028.56
101027.79
101027.27
101074.11
101074.56
101075.15
101075.8
101077.55
101116.82
101114.72
101114.19
101113.74
101113.39
101141.9
101142.17
101142.52
101142.94
101144.92
101167.53
101165.86
101165.53
101165.25
101165.03
101184.33
101184.51
101184.72
101184.99
101186.38
101201.97
101200.82
101200.6
101200.43
101200.28
101213.62
101213.74
101213.88
101214.06
101215.01
101226.08
101225.31
101225.16
101225.04
101224.94
101234.59
101234.68
101234.78
101234.9
101235.52
101243.65
101243.15
101243.04
101242.96
101242.88
101250.07
101250.14
101250.21
101250.3
101250.7
101256.84
101256.53
101256.45
101256.39
101256.33
101261.82
101261.88
101261.94
101262
101262.24
101266.99
101266.82
101266.76
101266.71
101266.66
101270.94
101270.99
101271.03
101271.08
101271.2
101274.95
101274.88
101274.83
101274.79
101274.75
101278.15
101278.19
101278.23
101278.27
101278.3
101281.3
101281.31
101281.27
101281.24
101281.2
101283.94
101283.98
101284.01
101284.04
101284.01
101286.46
101286.52
101286.49
101286.47
101286.43
101288.68
101288.71
101288.74
101288.76
101288.68
101290.7
101290.81
101290.78
101290.76
101290.73
101292.6
101292.63
101292.65
101292.67
101292.55
101294.25
101294.39
101294.37
101294.35
101294.33
101295.91
101295.94
101295.95
101295.97
101295.81
101297.26
101297.43
101297.41
101297.4
101297.37
101298.73
101298.76
101298.77
101298.78
101298.6
101299.87
101300.06
101300.05
101300.04
101300.01
101300.02
101300.04
101300.05
101300.06
101299.86
101298.61
101298.8
101298.79
101298.77
101298.75
101297.39
101297.42
101297.43
101297.44
101297.27
101295.83
101295.99
101295.97
101295.96
101295.93
101294.35
101294.38
101294.39
101294.41
101294.27
101292.58
101292.7
101292.68
101292.66
101292.63
101290.77
101290.79
101290.81
101290.83
101290.73
101288.71
101288.79
101288.77
101288.74
101288.71
101286.47
101286.5
101286.53
101286.55
101286.5
101284.05
101284.08
101284.05
101284.02
101283.99
101281.24
101281.28
101281.31
101281.34
101281.35
101278.35
101278.3
101278.27
101278.23
101278.2
101274.8
101274.84
101274.87
101274.92
101275.01
101271.27
101271.12
101271.07
101271.03
101270.99
101266.72
101266.76
101266.81
101266.87
101267.08
101262.34
101262.05
101261.98
101261.93
101261.88
101256.4
101256.46
101256.52
101256.6
101256.97
101250.85
101250.38
101250.29
101250.22
101250.15
101242.98
101243.06
101243.14
101243.25
101243.84
101235.75
101235.01
101234.89
101234.79
101234.7
101225.06
101225.16
101225.28
101225.44
101226.34
101215.33
101214.21
101214.03
101213.88
101213.76
101200.39
101200.54
101200.72
101200.95
101202.33
101186.77
101185.07
101184.79
101184.56
101184.38
101165.04
101165.25
101165.54
101165.89
101167.99
101145.59
101143.07
101142.63
101142.27
101142
101113.55
101113.9
101114.36
101114.91
101117.57
101078.58
101076.2
101075.53
101074.94
101074.49
101029.9
101030.37
101031.2
101032.14
101035.86
101020.69
101011.42
101009.68
101008.39
101008.01
100923.9
100924.01
100923.35
100923.61
100922.63
100555.66
100410.29
100394.7
100382.96
100364.68
100516.75
100545.67
100566.96
100590.13
100771.42
101209.93
101313.41
101318.54
101321.42
101319.77
100956.99
100976.06
100985.06
100995.53
101083.74
101565.23
101553.27
101533.27
101509.98
101480.48
101841.03
101988
102008.35
102022.76
102026.69
102116.58
102109.73
102102.26
102082.98
101789.23
101623.87
101655.32
101647.7
101639
101616.89
101507.05
101515.22
101518.6
101519.42
101459.1
101287.58
101368.59
101376.92
101382.3
101387.59
101163.99
101174.6
101183.66
101188.8
101190.38
100634.84
100419.95
100391.7
100366.63
100328.55
100497.18
100506.84
100511.32
100519.82
100603.72
100931.37
100927.08
100925.5
100924.41
100923.25
101004.76
101005.55
101006.91
101008.55
101013.14
101032.88
101031.88
101030.96
101030.1
101029.52
101075.02
101075.51
101076.15
101076.84
101078.1
101117.15
101115.33
101114.77
101114.27
101113.89
101142.2
101142.5
101142.88
101143.32
101145.15
101167.63
101166.02
101165.67
101165.38
101165.14
101184.35
101184.54
101184.77
101185.05
101186.42
101201.99
101200.85
101200.62
101200.43
101200.27
101213.61
101213.74
101213.89
101214.08
101215.03
101226.07
101225.29
101225.14
101225.01
101224.9
101234.55
101234.64
101234.74
101234.88
101235.51
101243.64
101243.13
101243.02
101242.93
101242.85
101250.04
101250.11
101250.18
101250.28
101250.68
101256.83
101256.51
101256.43
101256.37
101256.3
101261.79
101261.85
101261.91
101261.98
101262.22
101266.98
101266.79
101266.73
101266.68
101266.63
101270.92
101270.97
101271.01
101271.07
101271.19
101274.94
101274.86
101274.81
101274.77
101274.73
101278.13
101278.17
101278.21
101278.25
101278.29
101281.29
101281.29
101281.25
101281.22
101281.18
101283.93
101283.97
101284
101284.03
101284
101286.45
101286.5
101286.47
101286.44
101286.41
101288.67
101288.7
101288.72
101288.75
101288.67
101290.69
101290.79
101290.77
101290.75
101290.72
101292.59
101292.62
101292.64
101292.66
101292.54
101294.24
101294.38
101294.36
101294.34
101294.32
101295.9
101295.93
101295.95
101295.96
101295.81
101297.26
101297.43
101297.41
101297.4
101297.37
101298.74
101298.76
101298.78
101298.79
101298.61
101299.88
101300.08
101300.07
101300.05
101300.03
101300.07
101300.09
101300.1
101300.11
101299.87
101298.61
101298.84
101298.83
101298.82
101298.8
101297.44
101297.46
101297.47
101297.48
101297.27
101295.83
101296.02
101296.01
101296
101295.98
101294.39
101294.42
101294.43
101294.45
101294.27
101292.58
101292.74
101292.72
101292.7
101292.68
101290.81
101290.83
101290.85
101290.87
101290.74
101288.72
101288.83
101288.81
101288.79
101288.76
101286.51
101286.54
101286.56
101286.59
101286.51
101284.07
101284.12
101284.09
101284.06
101284.03
101281.29
101281.32
101281.35
101281.38
101281.38
101278.39
101278.35
101278.31
101278.28
101278.24
101274.85
101274.88
101274.92
101274.96
101275.05
101271.33
101271.17
101271.12
101271.08
101271.04
101266.77
101266.81
101266.86
101266.91
101267.14
101262.41
101262.1
101262.04
101261.99
101261.94
101256.46
101256.52
101256.57
101256.65
101257.05
101250.95
101250.43
101250.35
101250.28
101250.22
101243.06
101243.13
101243.21
101243.31
101243.97
101235.91
101235.11
101234.98
101234.89
101234.81
101225.22
101225.31
101225.42
101225.57
101226.56
101215.61
101214.4
101214.23
101214.09
101213.98
101200.74
101200.87
101201.04
101201.26
101202.71
101187.32
101185.57
101185.3
101185.09
101184.93
101165.92
101166.12
101166.39
101166.73
101168.76
101146.68
101144.43
101144
101143.64
101143.39
101115.29
101115.63
101116.1
101116.65
101118.74
101079.53
101078.48
101077.8
101077.17
101076.74
101032.98
101033.52
101034.38
101035.31
101036.09
101019.8
101013.82
101012
101010.54
101009.78
100930.88
100931.43
100931.79
100933.36
100935.76
100625.81
100529.57
100521.55
100516.19
100506.46
100407.33
100439.67
100463.07
100490.07
100731.63
101080.95
101103.61
101102.22
101100.94
101091.82
100840.11
100871.08
100899.2
100926.6
101150.11
101590.82
101946.87
101987.8
102023.3
102058.35
101052.49
101075.27
101092.77
101107.59
101191.76
100952.43
100878.24
100865.62
100856.21
100832.86
100897.78
100900.86
100901.51
100902.15
100896.43
100549.93
100339.06
100313.95
100292.23
100264.32
100915.34
100915.95
100915.76
100916.46
100916.84
101022.44
101014.92
101012.99
101011.46
101010.88
101030.29
101030.86
101031.83
101032.92
101036.34
101078.48
101076.4
101075.66
101074.97
101074.48
101113.57
101113.96
101114.49
101115.1
101117.57
101145.58
101143.18
101142.69
101142.28
101141.98
101164.97
101165.21
101165.53
101165.91
101167.95
101186.73
101185.05
101184.74
101184.49
101184.29
101200.29
101200.45
101200.65
101200.9
101202.28
101215.28
101214.14
101213.94
101213.78
101213.64
101224.95
101225.06
101225.2
101225.36
101226.3
101235.71
101234.94
101234.81
101234.7
101234.6
101242.9
101242.98
101243.07
101243.18
101243.81
101250.83
101250.32
101250.23
101250.15
101250.08
101256.34
101256.4
101256.46
101256.54
101256.95
101262.32
101261.99
101261.92
101261.87
101261.81
101266.64
101266.69
101266.74
101266.8
101267.05
101271.25
101271.07
101271.01
101270.97
101270.92
101274.73
101274.77
101274.81
101274.86
101274.98
101278.32
101278.25
101278.21
101278.17
101278.13
101281.18
101281.22
101281.25
101281.29
101281.32
101284.02
101284.02
101283.99
101283.96
101283.93
101286.41
101286.44
101286.47
101286.49
101286.46
101288.67
101288.73
101288.71
101288.68
101288.65
101290.71
101290.73
101290.76
101290.78
101290.69
101292.53
101292.64
101292.62
101292.6
101292.58
101294.29
101294.32
101294.34
101294.35
101294.22
101295.78
101295.93
101295.92
101295.9
101295.87
101297.34
101297.36
101297.38
101297.39
101297.23
101298.57
101298.74
101298.73
101298.72
101298.69
101299.96
101299.98
101300
101300.01
101299.82
101299.85
101300.05
101300.04
101300.02
101300
101298.74
101298.76
101298.78
101298.79
101298.6
101297.26
101297.44
101297.43
101297.41
101297.39
101295.93
101295.95
101295.97
101295.98
101295.82
101294.26
101294.4
101294.39
101294.37
101294.34
101292.63
101292.65
101292.67
101292.69
101292.57
101290.72
101290.82
101290.8
101290.78
101290.75
101288.71
101288.74
101288.76
101288.79
101288.71
101286.49
101286.54
101286.51
101286.49
101286.46
101283.98
101284.01
101284.04
101284.07
101284.04
101281.35
101281.34
101281.3
101281.27
101281.24
101278.19
101278.23
101278.26
101278.3
101278.35
101275.01
101274.91
101274.87
101274.83
101274.79
101270.99
101271.03
101271.07
101271.12
101271.27
101267.07
101266.85
101266.8
101266.75
101266.7
101261.89
101261.94
101261.99
101262.06
101262.34
101256.96
101256.6
101256.52
101256.46
101256.4
101250.16
101250.22
101250.3
101250.38
101250.85
101243.84
101243.26
101243.16
101243.07
101243
101234.72
101234.81
101234.91
101235.03
101235.75
101226.34
101225.46
101225.31
101225.19
101225.09
101213.8
101213.92
101214.07
101214.25
101215.33
101202.34
101201.02
101200.79
101200.6
101200.46
101184.48
101184.66
101184.89
101185.18
101186.79
101168.04
101166.04
101165.69
101165.39
101165.17
101142.1
101142.38
101142.76
101143.21
101145.65
101117.7
101115
101114.42
101113.94
101113.57
101074.59
101075.06
101075.68
101076.39
101078.88
101034.79
101031.33
101030.36
101029.5
101028.97
101005.21
101005.71
101007.11
101008.96
101018.23
100933.38
100935.22
100934.98
100935.72
100935.73
100425.51
100439.79
100447.57
100458.6
100569.6
100656.21
100389.62
100355.1
100324.99
100285.07
101581.59
101569.67
101557.02
101540.02
101358.27
101005.89
100884.3
100870.79
100862.27
100842.23
101219.64
101135.48
101205.8
101124.61
100946.08
100924.59
100905.04
100877.33
101379.76
101376.49
101372.95
101367.13
101312.09
101714.3
101723.94
101728.88
101726.8
101706.38
101454.09
101521.76
101518.38
101512.31
101490.36
101070.61
101104.51
101120.71
101139.2
101230.36
101456.71
101499.99
101503.23
101502.45
101499.98
101481.06
101768.51
101439.26
101515.24
101310.33
101312.63
101306.45
101310.29
101307.33
101306.03
101307.14
101307.18
101299.99
101300.01
101300.02
101300.03
101299.85
101298.61
101298.79
101298.78
101298.76
101298.74
101297.39
101297.41
101297.43
101297.44
101297.28
101295.84
101295.99
101295.98
101295.96
101295.94
101294.36
101294.39
101294.4
101294.42
101294.28
101292.59
101292.71
101292.69
101292.67
101292.64
101290.77
101290.8
101290.82
101290.84
101290.74
101288.71
101288.8
101288.77
101288.75
101288.71
101286.46
101286.5
101286.52
101286.55
101286.49
101284.05
101284.08
101284.05
101284.02
101283.98
101281.23
101281.27
101281.3
101281.34
101281.33
101278.32
101278.29
101278.25
101278.21
101278.17
101274.77
101274.81
101274.85
101274.9
101274.97
101271.23
101271.11
101271.06
101271.01
101270.96
101266.68
101266.73
101266.78
101266.84
101267.01
101262.26
101262.02
101261.95
101261.9
101261.84
101256.35
101256.41
101256.48
101256.56
101256.87
101250.72
101250.32
101250.22
101250.15
101250.08
101242.89
101242.97
101243.06
101243.17
101243.67
101235.55
101234.93
101234.8
101234.69
101234.6
101224.95
101225.06
101225.19
101225.34
101226.11
101215.06
101214.13
101213.94
101213.78
101213.66
101200.32
101200.48
101200.66
101200.9
101202.03
101186.47
101185.1
101184.81
101184.58
101184.39
101165.15
101165.38
101165.68
101166.04
101167.68
101145.24
101143.33
101142.87
101142.49
101142.19
101113.66
101114.04
101114.54
101115.11
101117.02
101077.19
101075.82
101075.14
101074.5
101074.02
101031.22
101031.77
101032.65
101033.6
101035.11
101021.47
101017.71
101015.99
101014.54
101013.83
100899.01
100900.17
100901.21
100902.76
100904.45
100556.62
100381.3
100362.59
100347.64
100327.15
100884.45
100892.71
100893.69
100896.03
100900.2
100873.14
100719.54
100699.48
100682.29
100649.91
101260.74
101267.72
101278.99
101285.93
101319.04
101551.47
101554.3
101559.12
101547.38
101377.4
101399.74
101398.9
101404.23
101354.56
101372.16
101418.08
101406.64
101398.9
101372.23
102341.57
102299.22
102262.78
102216.18
101855.15
101765.13
102013.64
102034.97
102050.56
102066.63
101260.27
101267.27
101278.57
101285.53
101318.87
100873.01
100719.32
100699.27
100682.09
100649.71
100884.37
100892.63
100893.6
100895.94
100900.15
100556.62
100381.22
100362.5
100347.53
100327.04
100899.13
100900.29
100901.3
100902.85
100904.55
101021.52
101017.72
101015.99
101014.55
101013.84
101031.26
101031.82
101032.69
101033.64
101035.16
101077.21
101075.84
101075.16
101074.52
101074.05
101113.68
101114.06
101114.56
101115.13
101117.04
101145.26
101143.35
101142.9
101142.51
101142.22
101165.16
101165.4
101165.7
101166.05
101167.69
101186.48
101185.11
101184.82
101184.59
101184.4
101200.34
101200.49
101200.68
101200.91
101202.05
101215.07
101214.14
101213.95
101213.79
101213.67
101224.96
101225.07
101225.2
101225.35
101226.12
101235.56
101234.94
101234.8
101234.7
101234.61
101242.9
101242.98
101243.07
101243.18
101243.68
101250.72
101250.32
101250.23
101250.15
101250.08
101256.35
101256.41
101256.48
101256.56
101256.86
101262.24
101262.01
101261.94
101261.88
101261.82
101266.67
101266.72
101266.77
101266.83
101267
101271.2
101271.09
101271.04
101270.99
101270.94
101274.75
101274.79
101274.83
101274.88
101274.95
101278.3
101278.26
101278.22
101278.19
101278.15
101281.2
101281.24
101281.27
101281.3
101281.3
101284
101284.03
101284
101283.97
101283.94
101286.42
101286.45
101286.48
101286.51
101286.45
101288.66
101288.74
101288.72
101288.69
101288.66
101290.71
101290.74
101290.76
101290.79
101290.68
101292.53
101292.65
101292.63
101292.61
101292.58
101294.29
101294.32
101294.34
101294.36
101294.22
101295.78
101295.93
101295.91
101295.9
101295.87
101297.32
101297.35
101297.37
101297.38
101297.21
101298.55
101298.73
101298.72
101298.7
101298.68
101299.95
101299.97
101299.99
101300
101299.81
101301
101301.22
101301.21
101301.2
101301.19
101299.83
101300.03
101300.02
101300
101299.98
101298.73
101298.75
101298.77
101298.78
101298.59
101297.26
101297.43
101297.42
101297.41
101297.38
101295.93
101295.95
101295.97
101295.98
101295.83
101294.27
101294.41
101294.39
101294.37
101294.35
101292.63
101292.66
101292.68
101292.7
101292.59
101290.74
101290.83
101290.81
101290.79
101290.76
101288.71
101288.74
101288.77
101288.79
101288.72
101286.51
101286.55
101286.52
101286.5
101286.46
101283.98
101284.01
101284.04
101284.07
101284.06
101281.36
101281.33
101281.3
101281.27
101281.23
101278.18
101278.22
101278.25
101278.29
101278.37
101275.02
101274.9
101274.86
101274.82
101274.77
101270.96
101271.01
101271.05
101271.11
101271.29
101267.09
101266.84
101266.78
101266.73
101266.68
101261.85
101261.9
101261.96
101262.03
101262.35
101256.98
101256.58
101256.49
101256.43
101256.37
101250.12
101250.19
101250.26
101250.36
101250.87
101243.85
101243.23
101243.12
101243.03
101242.95
101234.65
101234.74
101234.85
101234.99
101235.75
101226.35
101225.42
101225.26
101225.13
101225.02
101213.72
101213.85
101214.01
101214.21
101215.34
101202.35
101200.99
101200.74
101200.54
101200.38
101184.4
101184.6
101184.85
101185.16
101186.81
101168.06
101166.04
101165.66
101165.34
101165.1
101142.14
101142.43
101142.84
101143.32
101145.71
101117.71
101115.25
101114.65
101114.12
101113.73
101074.68
101075.17
101075.85
101076.58
101078.63
101036.55
101033.16
101032.09
101031.12
101030.55
101011.16
101011.74
101013.26
101015.18
101022.66
100916.92
100916.72
100916.05
100916.29
100915.69
100264.95
100292.84
100314.58
100339.71
100550.49
100896.92
100902.68
100902.05
100901.42
100898.34
100833.65
100856.96
100866.36
100878.96
100952.96
101192
101108.51
101093.78
101076.36
101053.67
102058.15
102023.24
101987.82
101946.86
101590.57
101150.09
100927.31
100900.01
100871.99
100841.15
101383.32
101378.32
101373.19
101365.14
101286.64
101204.75
101251.42
101255.74
101259.4
101256.58
100874.08
100899
100911.55
100929.46
101072.18
101006.21
100884.22
100870.69
100862.14
100842.02
100958.42
100977.5
100986.5
100996.96
101084.99
101125.4
100946.27
100924.74
100905.15
100877.4
101380.41
101377.14
101373.6
101367.76
101312.49
100895.16
100751.52
100729.14
100706.97
100674.15
100870.06
100877.67
100879.97
100883.68
100902.34
100546.26
100367.77
100349.03
100334.28
100312.27
100902.79
100904.07
100905.31
100906.7
100905.5
101021.97
101018.43
101016.62
101015.09
101014.45
101031.16
101031.72
101032.64
101033.61
101034.85
101077.35
101076.28
101075.59
101074.93
101074.45
101114.17
101114.54
101115.05
101115.62
101117.27
101145.41
101143.7
101143.25
101142.86
101142.57
101165.41
101165.64
101165.94
101166.29
101167.79
101186.55
101185.28
101185
101184.77
101184.58
101200.48
101200.63
101200.81
101201.04
101202.1
101215.12
101214.24
101214.05
101213.9
101213.78
101225.05
101225.16
101225.28
101225.44
101226.16
101235.59
101235
101234.87
101234.77
101234.68
101242.96
101243.04
101243.13
101243.23
101243.71
101250.75
101250.37
101250.28
101250.2
101250.13
101256.38
101256.44
101256.51
101256.59
101256.88
101262.27
101262.05
101261.98
101261.93
101261.87
101266.69
101266.74
101266.79
101266.85
101267.01
101271.22
101271.11
101271.06
101271.02
101270.97
101274.77
101274.81
101274.85
101274.9
101274.96
101278.31
101278.28
101278.24
101278.21
101278.17
101281.21
101281.25
101281.28
101281.31
101281.31
101284.01
101284.05
101284.02
101283.99
101283.96
101286.43
101286.47
101286.49
101286.52
101286.46
101288.67
101288.76
101288.74
101288.71
101288.68
101290.72
101290.75
101290.77
101290.8
101290.69
101292.53
101292.66
101292.64
101292.62
101292.59
101294.31
101294.33
101294.35
101294.37
101294.23
101295.78
101295.94
101295.93
101295.91
101295.88
101297.34
101297.37
101297.38
101297.4
101297.22
101298.56
101298.74
101298.73
101298.72
101298.69
101299.95
101299.98
101299.99
101300
101299.81
101300.96
101301.16
101301.15
101301.14
101301.12
101299.87
101300.07
101300.06
101300.04
101300.02
101298.76
101298.79
101298.8
101298.81
101298.63
101297.29
101297.46
101297.45
101297.43
101297.41
101295.95
101295.97
101295.99
101296
101295.84
101294.28
101294.43
101294.41
101294.39
101294.36
101292.64
101292.67
101292.69
101292.71
101292.59
101290.74
101290.84
101290.82
101290.8
101290.77
101288.73
101288.76
101288.78
101288.81
101288.72
101286.49
101286.56
101286.53
101286.51
101286.47
101283.98
101284.02
101284.05
101284.08
101284.04
101281.33
101281.34
101281.31
101281.27
101281.24
101278.19
101278.23
101278.27
101278.31
101278.33
101274.98
101274.92
101274.87
101274.83
101274.79
101270.98
101271.02
101271.07
101271.12
101271.23
101267.02
101266.86
101266.8
101266.75
101266.7
101261.87
101261.92
101261.98
101262.04
101262.27
101256.88
101256.58
101256.5
101256.44
101256.38
101250.12
101250.19
101250.27
101250.36
101250.73
101243.69
101243.22
101243.11
101243.02
101242.94
101234.65
101234.74
101234.85
101234.98
101235.57
101226.13
101225.4
101225.25
101225.13
101225.02
101213.73
101213.86
101214.01
101214.19
101215.08
101202.06
101200.99
101200.76
101200.58
101200.43
101184.52
101184.71
101184.94
101185.22
101186.5
101167.73
101166.22
101165.87
101165.57
101165.34
101142.48
101142.77
101143.16
101143.61
101145.33
101117.18
101115.51
101114.94
101114.44
101114.06
101074.32
101074.81
101075.46
101076.15
101077.25
101034.71
101033.45
101032.47
101031.55
101030.99
101014.34
101014.99
101016.52
101018.33
101021.84
100905.2
100906.52
100905.14
100903.9
100902.61
100311.69
100333.68
100348.41
100367.15
100545.79
100902.09
100883.43
100879.72
100877.43
100869.83
100673.91
100706.7
100728.84
100751.2
100894.85
101017.25
100940.56
100930.96
100921.44
100904.73
100662.55
100682.52
100694.59
100709.13
100826
100601.81
100457.61
100444.38
100434.83
100420.13
100917.25
100917.84
100918.64
100920.09
100926.1
101023.43
101017.76
101016.15
101014.81
101014.27
101032.81
101033.27
101034.06
101034.91
101036.14
101078.71
101077.48
101076.87
101076.29
101075.89
101115.14
101115.45
101115.88
101116.39
101118.53
101146.6
101144.34
101143.94
101143.62
101143.39
101165.96
101166.15
101166.4
101166.71
101168.7
101187.28
101185.6
101185.35
101185.16
101185.01
101200.82
101200.95
101201.1
101201.31
101202.7
101215.6
101214.47
101214.3
101214.18
101214.07
101225.31
101225.4
101225.5
101225.64
101226.56
101235.91
101235.17
101235.06
101234.97
101234.89
101243.15
101243.21
101243.29
101243.38
101243.97
101250.96
101250.5
101250.42
101250.36
101250.3
101256.54
101256.59
101256.65
101256.72
101257.07
101262.43
101262.17
101262.11
101262.06
101262.02
101266.84
101266.88
101266.92
101266.97
101267.16
101271.35
101271.23
101271.19
101271.15
101271.11
101274.91
101274.95
101274.98
101275.02
101275.08
101278.41
101278.4
101278.37
101278.34
101278.31
101281.35
101281.39
101281.41
101281.44
101281.41
101284.11
101284.18
101284.15
101284.13
101284.1
101286.58
101286.6
101286.62
101286.65
101286.55
101288.76
101288.89
101288.87
101288.85
101288.82
101290.87
101290.89
101290.91
101290.93
101290.78
101292.62
101292.79
101292.78
101292.76
101292.74
101294.45
101294.47
101294.49
101294.5
101294.31
101295.87
101296.08
101296.07
101296.05
101296.03
101297.49
101297.51
101297.52
101297.53
101297.31
101298.65
101298.88
101298.87
101298.86
101298.84
101300.09
101300.11
101300.12
101300.13
101299.89
101299.88
101300.13
101300.12
101300.11
101300.09
101298.83
101298.85
101298.87
101298.88
101298.64
101297.31
101297.53
101297.52
101297.51
101297.48
101296.03
101296.05
101296.07
101296.08
101295.88
101294.32
101294.5
101294.49
101294.47
101294.45
101292.74
101292.76
101292.78
101292.79
101292.63
101290.79
101290.93
101290.91
101290.89
101290.87
101288.82
101288.85
101288.87
101288.89
101288.77
101286.56
101286.64
101286.62
101286.6
101286.57
101284.09
101284.12
101284.14
101284.17
101284.12
101281.42
101281.43
101281.4
101281.37
101281.34
101278.29
101278.33
101278.36
101278.39
101278.42
101275.09
101275
101274.96
101274.93
101274.89
101271.08
101271.13
101271.16
101271.21
101271.36
101267.17
101266.95
101266.9
101266.85
101266.81
101261.98
101262.03
101262.08
101262.14
101262.44
101257.08
101256.69
101256.61
101256.56
101256.5
101250.25
101250.32
101250.38
101250.47
101250.98
101243.98
101243.34
101243.24
101243.17
101243.1
101234.84
101234.92
101235.01
101235.13
101235.93
101226.57
101225.59
101225.45
101225.34
101225.24
101214
101214.11
101214.24
101214.41
101215.62
101202.72
101201.26
101201.04
101200.88
101200.75
101184.93
101185.09
101185.3
101185.56
101187.32
101168.75
101166.68
101166.35
101166.09
101165.89
101143.32
101143.57
101143.9
101144.32
101146.66
101118.6
101116.33
101115.8
101115.35
101115.03
101075.83
101076.25
101076.82
101077.46
101079.05
101037.1
101035.12
101034.24
101033.45
101032.92
101011.99
101012.72
101014.08
101015.76
101023.33
100926.72
100919.78
100918.59
100917.95
100917.45
100487.86
100496.27
100500.2
100508.11
100609.82
100781.75
100558.1
100530.74
100504.59
100470.48
101004.96
101010.29
101010.7
101010.91
101022.99
101118.12
100926.23
100905.3
100888.91
100861.88
101465.1
101492.02
101513.8
101532.43
101539.39
101178.28
101136.68
101126.9