/*--------------------------------*- C++ -*----------------------------------*\
  =========                 |
  \\      /  F ield         | OpenFOAM: The Open Source CFD Toolbox
   \\    /   O peration     | Website:  https://openfoam.org
    \\  /    A nd           | Version:  7
     \\/     M anipulation  |
\*---------------------------------------------------------------------------*/
FoamFile
{
    version     2.0;
    format      ascii;
    class       volScalarField;
    location    "420";
    object      rho;
}
// * * * * * * * * * * * * * * * * * * * * * * * * * * * * * * * * * * * * * //

dimensions      [1 -3 0 0 0 0 0];

internalField   nonuniform List<scalar> 
25201
(
1.1738727
1.1738628
1.173873
1.1738638
1.1738358
1.1738478
1.173856
1.1738583
1.1738487
1.1738309
1.1738484
1.1738471
1.1738369
1.1738708
1.1738789
1.1738285
1.1738385
1.1738401
1.1738246
1.1738733
1.1738445
1.1738408
1.1738245
1.1738628
1.1738727
1.1738601
1.1738413
1.1738359
1.1738418
1.1738501
1.1738538
1.1738383
1.1739034
1.1738947
1.1738835
1.1738825
1.1738345
1.173845
1.173893
1.1738999
1.1738417
1.1738457
1.173857
1.1739086
1.1739041
1.1738933
1.173867
1.1738521
1.1738338
1.1738384
1.1738361
1.173829
1.1738279
1.1738297
1.1738307
1.173827
1.1738355
1.1738455
1.1738298
1.1738413
1.1738118
1.1738495
1.1738292
1.1738296
1.1738045
1.1738171
1.1738106
1.1738043
1.1738223
1.1738222
1.1738455
1.1738153
1.1738461
1.1738278
1.173829
1.1738487
1.1738201
1.1738269
1.1738646
1.1738517
1.1738569
1.173842
1.1738745
1.1738491
1.173874
1.1738288
1.1738724
1.1738733
1.1738602
1.1738568
1.1738232
1.1738949
1.1738628
1.1738988
1.173876
1.1738297
1.1738517
1.1738994
1.1739057
1.1739139
1.1738934
1.1739051
1.1739155
1.1739146
1.1738863
1.1739287
1.1739123
1.1738713
1.1738947
1.1739152
1.1738893
1.1738721
1.1739147
1.1739161
1.1739428
1.1739601
1.173927
1.1739412
1.1739437
1.1739176
1.1738951
1.1739558
1.173917
1.1739375
1.1739502
1.1739049
1.1739077
1.1738942
1.1738562
1.1738889
1.1738954
1.1738999
1.1738916
1.1738868
1.1738837
1.173873
1.1738704
1.1738724
1.1738484
1.1738341
1.1738264
1.1738288
1.1738407
1.1738106
1.1738436
1.173829
1.1738294
1.1738301
1.1738354
1.1738168
1.1738044
1.1738292
1.1738221
1.1738043
1.1738104
1.1738059
1.1738282
1.1738309
1.1738432
1.1738263
1.1738449
1.1738132
1.1738275
1.1738545
1.1738393
1.1738481
1.1738613
1.1738255
1.1738847
1.1738656
1.1738734
1.1738487
1.1738456
1.1738503
1.1738347
1.1738587
1.173846
1.1738719
1.1739142
1.1738745
1.1739019
1.1738433
1.1738985
1.1739275
1.1738806
1.1739424
1.1738971
1.1739456
1.1739413
1.173947
1.1739304
1.1739129
1.173913
1.1738699
1.1738936
1.1738219
1.1738562
1.1739413
1.1739529
1.1738908
1.1739112
1.1738864
1.1739272
1.1738604
1.1738956
1.1739125
1.1739147
1.1739106
1.1738701
1.1739164
1.1739361
1.1739493
1.1739048
1.1739312
1.1739038
1.1739129
1.1738635
1.1738722
1.173836
1.1738341
1.1738417
1.1738571
1.1738912
1.1738521
1.1738482
1.1738402
1.1738459
1.1739034
1.1739078
1.1739009
1.1738978
1.17389
1.1738438
1.173832
1.1738352
1.1738791
1.1738786
1.1738691
1.1738385
1.1738368
1.1735986
1.1736116
1.1736405
1.1736763
1.173968
1.1744879
1.1744776
1.1744686
1.174458
1.1744523
1.1741624
1.1741735
1.1741792
1.1741836
1.1742153
1.174206
1.1741856
1.1741808
1.1741736
1.1741641
1.1740552
1.1740669
1.1740751
1.174081
1.1741104
1.1740628
1.1740323
1.1740259
1.174017
1.1740044
1.1739482
1.1739617
1.1739712
1.1739781
1.1740109
1.1739722
1.1739388
1.1739316
1.1739216
1.1739075
1.17387
1.1738848
1.1738951
1.1739025
1.1739369
1.1739068
1.1738717
1.173864
1.1738534
1.173838
1.1738089
1.1738248
1.1738357
1.1738436
1.1738797
1.1738553
1.1738182
1.17381
1.1737988
1.1737824
1.1737578
1.1737746
1.1737862
1.1737946
1.1738327
1.1738117
1.1737725
1.1737638
1.1737519
1.1737346
1.1737125
1.1737303
1.1737425
1.1737514
1.1737918
1.1737728
1.1737311
1.1737219
1.1737094
1.1736911
1.1736703
1.1736891
1.173702
1.1737114
1.1737544
1.1737363
1.1736919
1.1736822
1.173669
1.1736498
1.1736296
1.1736493
1.1736628
1.1736729
1.1737187
1.1737012
1.1736538
1.1736434
1.1736295
1.1736093
1.1735889
1.1736096
1.1736239
1.1736345
1.1736835
1.1736659
1.1736152
1.1736042
1.1735895
1.1735683
1.1735477
1.1735695
1.1735845
1.1735958
1.1736483
1.1736301
1.1735757
1.173564
1.1735485
1.1735262
1.1735043
1.1735273
1.1735432
1.1735553
1.1736117
1.1735931
1.1735344
1.173522
1.1735055
1.173482
1.1734591
1.1734833
1.1735002
1.1735131
1.173574
1.173554
1.1734907
1.1734773
1.1734599
1.173435
1.1734084
1.1734342
1.1734523
1.1734662
1.1735324
1.1735119
1.1734418
1.1734272
1.1734084
1.1733816
1.1733606
1.1733881
1.1734073
1.1734223
1.1734936
1.1734688
1.1733934
1.1733777
1.1733576
1.1733292
1.1734707
1.1733714
1.1733539
1.1733317
1.173301
1.1733324
1.1733622
1.1733834
1.1734001
1.173495
1.1735132
1.17342
1.1734036
1.1733829
1.1733538
1.1733792
1.1734072
1.1734273
1.1734431
1.173532
1.1735537
1.1734699
1.1734548
1.1734354
1.1734086
1.1734335
1.1734596
1.1734784
1.1734929
1.1735738
1.1735929
1.1735149
1.1735008
1.1734825
1.1734571
1.1734803
1.173505
1.1735227
1.1735363
1.1736116
1.1736301
1.1735577
1.1735445
1.1735273
1.1735032
1.1735254
1.1735488
1.1735654
1.1735782
1.1736482
1.1736658
1.173598
1.1735857
1.1735695
1.1735467
1.1735678
1.1735901
1.1736059
1.1736178
1.1736834
1.1737011
1.1736378
1.1736261
1.1736108
1.1735891
1.1736099
1.173631
1.1736459
1.1736572
1.1737185
1.1737361
1.1736766
1.1736657
1.1736511
1.1736305
1.1736514
1.1736715
1.1736856
1.1736962
1.1737539
1.1737722
1.1737162
1.1737059
1.1736921
1.1736726
1.1736942
1.1737132
1.1737267
1.1737367
1.1737911
1.1738108
1.1737579
1.1737482
1.1737351
1.1737165
1.1737399
1.1737579
1.1737706
1.17378
1.1738315
1.1738537
1.1738036
1.1737944
1.173782
1.1737645
1.1737908
1.1738078
1.1738198
1.1738287
1.1738776
1.1739041
1.1738563
1.1738476
1.1738359
1.1738195
1.1738507
1.1738666
1.1738779
1.1738863
1.1739334
1.1739676
1.1739214
1.1739132
1.1739022
1.173887
1.1739261
1.1739407
1.1739513
1.1739591
1.174005
1.1740543
1.1740103
1.1740028
1.1739928
1.1739789
1.1740287
1.1740415
1.1740509
1.1740577
1.1741002
1.1741855
1.1741485
1.1741424
1.174134
1.1741219
1.1741604
1.1741692
1.1741759
1.1741809
1.1742125
1.1744006
1.1743267
1.1743182
1.1743094
1.1742996
1.1742542
1.1742734
1.1742761
1.1742716
1.1742233
1.1744782
1.1732366
1.1731138
1.1729913
1.1728561
1.1745423
1.1745485
1.1745517
1.1745488
1.174498
1.174564
1.1744925
1.1744848
1.1744774
1.1744701
1.1742837
1.1742893
1.1742946
1.1742982
1.1743173
1.174258
1.1742271
1.1742217
1.174214
1.1742037
1.1740863
1.1740979
1.1741065
1.1741128
1.1741502
1.1740906
1.1740503
1.1740433
1.1740337
1.1740206
1.1739573
1.1739714
1.1739816
1.1739891
1.174032
1.1739884
1.1739445
1.1739366
1.1739258
1.173911
1.1738696
1.1738851
1.1738963
1.1739045
1.1739496
1.1739171
1.1738708
1.1738623
1.1738508
1.1738346
1.1738031
1.1738198
1.1738318
1.1738405
1.1738882
1.1738624
1.1738133
1.1738043
1.173792
1.1737747
1.1737485
1.1737663
1.1737789
1.1737883
1.1738388
1.1738169
1.1737649
1.1737553
1.1737423
1.1737239
1.1737006
1.1737195
1.1737329
1.1737428
1.1737964
1.1737769
1.1737216
1.1737114
1.1736977
1.1736783
1.1736566
1.1736765
1.1736906
1.1737011
1.1737581
1.1737398
1.173681
1.1736701
1.1736557
1.1736353
1.1736142
1.1736352
1.17365
1.1736612
1.1737219
1.1737042
1.1736415
1.17363
1.1736147
1.1735932
1.1735722
1.1735942
1.1736099
1.1736218
1.1736866
1.1736691
1.1736022
1.17359
1.1735739
1.1735513
1.1735299
1.1735531
1.1735696
1.1735822
1.1736513
1.1736328
1.1735612
1.1735482
1.1735312
1.1735073
1.1734842
1.1735087
1.1735262
1.1735397
1.1736141
1.1735953
1.1735181
1.1735042
1.1734861
1.1734609
1.1734373
1.1734631
1.1734817
1.1734961
1.1735762
1.173556
1.173473
1.1734581
1.1734389
1.1734122
1.173383
1.1734108
1.1734307
1.1734463
1.1735343
1.1735156
1.1734236
1.1734074
1.1733868
1.173358
1.1733374
1.1733668
1.1733878
1.1734043
1.1734978
1.1734743
1.1733767
1.1733594
1.1733375
1.1733071
1.1732708
1.1733025
1.1733256
1.1733439
1.173448
1.1732944
1.1733239
1.173345
1.1733615
1.1734436
1.1734702
1.1733928
1.1733771
1.1733571
1.1733287
1.1733556
1.1733833
1.1734027
1.1734179
1.1734925
1.173512
1.1734401
1.1734255
1.1734067
1.1733799
1.1734028
1.1734288
1.1734472
1.1734613
1.1735307
1.1735526
1.1734872
1.1734736
1.173456
1.1734309
1.1734554
1.1734798
1.1734969
1.1735099
1.173573
1.1735922
1.1735315
1.1735188
1.1735022
1.1734784
1.1735012
1.1735243
1.1735405
1.1735527
1.1736112
1.17363
1.1735737
1.1735619
1.1735462
1.1735237
1.1735456
1.1735675
1.1735827
1.1735941
1.1736484
1.1736663
1.1736139
1.1736028
1.173588
1.1735666
1.1735871
1.173608
1.1736224
1.1736331
1.1736838
1.1737015
1.1736524
1.173642
1.173628
1.1736076
1.1736282
1.1736481
1.1736617
1.1736718
1.1737193
1.1737373
1.1736913
1.1736815
1.1736682
1.1736489
1.1736698
1.1736887
1.1737016
1.1737111
1.1737557
1.1737746
1.1737314
1.1737222
1.1737095
1.1736911
1.1737131
1.173731
1.1737433
1.1737523
1.1737942
1.1738148
1.1737742
1.1737655
1.1737535
1.173736
1.1737602
1.1737772
1.1737889
1.1737973
1.1738368
1.1738605
1.1738221
1.1738139
1.1738026
1.1737861
1.1738143
1.1738302
1.1738412
1.1738491
1.1738864
1.1739156
1.1738793
1.1738716
1.1738609
1.1738455
1.1738804
1.1738952
1.1739055
1.1739129
1.1739484
1.1739876
1.173953
1.1739459
1.173936
1.1739219
1.1739686
1.1739819
1.1739913
1.1739981
1.174032
1.1740922
1.1740603
1.174054
1.1740453
1.174033
1.1741019
1.1741127
1.1741205
1.174126
1.1741559
1.174272
1.1742501
1.1742457
1.1742391
1.1742305
1.1743418
1.1743442
1.1743475
1.1743499
1.1743636
1.1746812
1.1746776
1.1746777
1.1746785
1.1746819
1.1749193
1.1748981
1.1748806
1.1748666
1.1748196
1.1738734
1.1735511
1.1735195
1.1735036
1.1735186
1.1745981
1.1746014
1.174614
1.1746253
1.174629
1.1742522
1.1742193
1.1742149
1.174208
1.1741949
1.1742005
1.174209
1.1742159
1.1742206
1.1742401
1.1741321
1.1741026
1.1740968
1.1740887
1.1740772
1.1740227
1.1740351
1.1740439
1.1740502
1.1740803
1.1740244
1.1739919
1.1739851
1.1739757
1.1739623
1.1739193
1.1739333
1.1739432
1.1739503
1.1739833
1.173946
1.1739121
1.1739047
1.1738945
1.1738798
1.1738464
1.1738617
1.1738723
1.1738799
1.1739146
1.1738864
1.1738507
1.1738429
1.173832
1.1738162
1.1737889
1.1738052
1.1738164
1.1738245
1.1738611
1.1738379
1.1738001
1.1737918
1.1737802
1.1737634
1.1737398
1.1737571
1.1737689
1.1737775
1.1738163
1.173796
1.173756
1.1737471
1.173735
1.1737172
1.1736956
1.1737138
1.1737263
1.1737354
1.1737766
1.1737579
1.1737154
1.173706
1.1736932
1.1736746
1.173654
1.1736731
1.1736862
1.1736958
1.1737397
1.1737219
1.1736766
1.1736667
1.1736532
1.1736336
1.1736134
1.1736335
1.1736472
1.1736574
1.1737042
1.1736866
1.1736383
1.1736278
1.1736136
1.173593
1.1735726
1.1735937
1.1736082
1.173619
1.1736691
1.1736513
1.1735995
1.1735883
1.1735734
1.1735517
1.1735305
1.1735527
1.173568
1.1735796
1.1736333
1.1736149
1.1735591
1.1735472
1.1735314
1.1735086
1.1734862
1.1735096
1.1735259
1.1735382
1.1735961
1.1735769
1.1735167
1.1735039
1.1734872
1.1734631
1.1734391
1.1734639
1.1734812
1.1734945
1.1735571
1.1735364
1.173471
1.1734572
1.1734393
1.1734137
1.1733882
1.1734146
1.1734331
1.1734475
1.1735156
1.1734948
1.1734237
1.1734088
1.1733896
1.1733622
1.1733336
1.1733619
1.1733818
1.1733974
1.1734718
1.1734471
1.1733687
1.1733525
1.1733317
1.1733024
1.1732935
1.1733231
1.1733441
1.1733607
1.173443
1.1734697
1.1733921
1.1733764
1.1733564
1.1733279
1.1733549
1.1733827
1.1734021
1.1734173
1.173492
1.1735114
1.1734393
1.1734247
1.1734058
1.1733789
1.1734017
1.1734278
1.1734462
1.1734603
1.1735299
1.1735518
1.1734861
1.1734725
1.1734549
1.1734297
1.1734541
1.1734785
1.1734957
1.1735088
1.1735721
1.1735914
1.1735304
1.1735177
1.173501
1.1734772
1.1734999
1.1735231
1.1735393
1.1735515
1.1736103
1.1736292
1.1735726
1.1735608
1.173545
1.1735225
1.1735443
1.1735663
1.1735816
1.1735931
1.1736477
1.1736656
1.1736129
1.1736017
1.1735869
1.1735654
1.1735859
1.1736068
1.1736213
1.1736321
1.1736832
1.1737009
1.1736515
1.1736411
1.1736269
1.1736065
1.1736272
1.1736471
1.1736608
1.1736709
1.1737187
1.1737367
1.1736904
1.1736806
1.1736672
1.1736478
1.1736687
1.1736876
1.1737007
1.1737102
1.1737551
1.1737739
1.1737304
1.1737211
1.1737084
1.17369
1.173712
1.17373
1.1737424
1.1737513
1.1737935
1.1738141
1.1737732
1.1737644
1.1737524
1.1737348
1.173759
1.173776
1.1737877
1.1737962
1.1738359
1.1738595
1.173821
1.1738127
1.1738013
1.1737848
1.1738128
1.1738288
1.1738398
1.1738478
1.1738853
1.1739143
1.1738778
1.1738701
1.1738594
1.173844
1.1738786
1.1738934
1.1739038
1.1739112
1.1739469
1.1739859
1.1739511
1.1739439
1.173934
1.1739199
1.1739665
1.1739798
1.1739892
1.173996
1.1740301
1.1740902
1.1740582
1.174052
1.1740432
1.1740309
1.1740996
1.1741104
1.1741182
1.1741237
1.1741536
1.1742708
1.1742489
1.1742446
1.1742382
1.1742296
1.1743369
1.1743395
1.1743429
1.1743453
1.1743595
1.1746961
1.1746893
1.1746896
1.1746907
1.1746955
1.1748924
1.1748714
1.1748545
1.1748417
1.1747917
1.1743469
1.1743874
1.1743958
1.1744074
1.1744223
1.1745692
1.1745686
1.1745745
1.1745805
1.1746215
1.1743048
1.1742825
1.1742786
1.1742725
1.1742651
1.1742002
1.1742098
1.1742172
1.1742223
1.1742508
1.1741407
1.1741031
1.1740968
1.1740879
1.1740761
1.1740131
1.1740261
1.1740358
1.1740428
1.1740829
1.1740254
1.1739825
1.1739749
1.1739646
1.1739505
1.1739054
1.1739202
1.173931
1.1739389
1.1739828
1.173945
1.1738998
1.1738915
1.1738803
1.1738648
1.1738305
1.1738467
1.1738583
1.1738668
1.1739131
1.1738847
1.1738371
1.1738282
1.1738163
1.1737995
1.1737716
1.1737889
1.1738012
1.1738103
1.1738594
1.1738361
1.1737855
1.1737762
1.1737635
1.1737456
1.1737214
1.1737398
1.1737528
1.1737624
1.1738145
1.1737942
1.1737405
1.1737306
1.1737172
1.1736983
1.1736761
1.1736955
1.1737092
1.1737195
1.1737748
1.1737562
1.173699
1.1736885
1.1736743
1.1736544
1.1736332
1.1736536
1.1736681
1.173679
1.173738
1.1737201
1.1736592
1.173648
1.1736331
1.1736121
1.1735911
1.1736127
1.173628
1.1736395
1.1737024
1.1736849
1.1736197
1.1736078
1.1735921
1.17357
1.1735491
1.1735718
1.1735879
1.1736002
1.1736674
1.1736496
1.1735802
1.1735675
1.1735509
1.1735276
1.173505
1.1735289
1.173546
1.1735591
1.1736311
1.1736124
1.1735375
1.1735239
1.1735063
1.1734817
1.1734584
1.1734837
1.1735018
1.1735159
1.1735936
1.1735744
1.1734938
1.1734792
1.1734605
1.1734345
1.1734093
1.1734361
1.1734554
1.1734705
1.1735541
1.1735323
1.1734435
1.1734277
1.1734076
1.1733797
1.1733547
1.1733837
1.1734044
1.1734207
1.1735135
1.1734959
1.1734015
1.1733848
1.1733637
1.173334
1.1733032
1.1733339
1.173356
1.1733735
1.173472
1.1734455
1.1733404
1.173322
1.1732987
1.1732667
1.173444
1.1733646
1.1733482
1.1733273
1.1732978
1.17333
1.1733585
1.1733785
1.1733942
1.1734695
1.1734941
1.1734226
1.1734077
1.1733884
1.173361
1.1733817
1.1734085
1.1734273
1.1734419
1.173512
1.1735325
1.1734663
1.1734523
1.1734342
1.1734084
1.1734351
1.17346
1.1734775
1.1734909
1.1735541
1.1735741
1.1735133
1.1735004
1.1734834
1.1734592
1.1734823
1.1735059
1.1735223
1.1735348
1.1735933
1.173612
1.1735557
1.1735437
1.1735277
1.1735047
1.1735268
1.1735492
1.1735647
1.1735763
1.1736305
1.1736488
1.1735966
1.1735853
1.1735703
1.1735485
1.1735692
1.1735904
1.1736051
1.173616
1.1736665
1.1736841
1.1736353
1.1736247
1.1736104
1.1735897
1.1736102
1.1736304
1.1736443
1.1736545
1.1737018
1.1737195
1.1736738
1.1736638
1.1736503
1.1736306
1.173651
1.1736702
1.1736834
1.173693
1.1737373
1.1737554
1.1737125
1.1737031
1.1736903
1.1736716
1.1736926
1.1737108
1.1737233
1.1737324
1.173774
1.1737933
1.1737529
1.1737441
1.1737319
1.1737141
1.1737365
1.1737538
1.1737657
1.1737743
1.1738135
1.1738349
1.1737968
1.1737884
1.1737769
1.1737601
1.1737852
1.1738016
1.1738128
1.1738208
1.173858
1.173883
1.1738468
1.173839
1.1738281
1.1738123
1.1738423
1.1738576
1.1738681
1.1738757
1.173911
1.1739422
1.1739076
1.1739003
1.1738901
1.1738754
1.1739146
1.1739285
1.1739383
1.1739453
1.1739792
1.1740204
1.1739868
1.1739801
1.1739708
1.1739575
1.1740174
1.1740296
1.1740383
1.1740444
1.174076
1.1741293
1.174098
1.1740925
1.1740846
1.1740733
1.1741956
1.1742038
1.1742102
1.1742145
1.1742372
1.1742599
1.1742251
1.174221
1.1742144
1.1742027
1.1745985
1.1745995
1.17461
1.1746187
1.1746287
1.1739737
1.1736968
1.1736719
1.1736638
1.173684
1.1737653
1.1737779
1.1738077
1.1738433
1.1741338
1.1745966
1.1745823
1.174574
1.1745651
1.1745595
1.1742277
1.1742373
1.174243
1.1742469
1.1742794
1.1742525
1.1742306
1.1742261
1.1742194
1.1742107
1.1740881
1.1740993
1.1741071
1.1741126
1.1741429
1.1740874
1.1740566
1.1740505
1.1740418
1.1740297
1.1739675
1.1739807
1.17399
1.1739967
1.1740296
1.173987
1.1739537
1.1739466
1.1739369
1.1739229
1.1738825
1.1738971
1.1739073
1.1739146
1.1739487
1.1739166
1.1738817
1.1738741
1.1738636
1.1738484
1.1738176
1.1738333
1.1738442
1.173852
1.1738878
1.1738622
1.1738254
1.1738173
1.1738061
1.1737898
1.1737643
1.1737811
1.1737926
1.1738009
1.1738387
1.1738169
1.1737779
1.1737694
1.1737575
1.1737403
1.1737176
1.1737354
1.1737475
1.1737563
1.1737964
1.1737769
1.1737356
1.1737265
1.173714
1.1736958
1.1736748
1.1736934
1.1737062
1.1737155
1.1737581
1.1737398
1.1736959
1.1736863
1.1736732
1.1736541
1.1736337
1.1736533
1.1736667
1.1736766
1.1737219
1.1737042
1.1736574
1.1736472
1.1736334
1.1736134
1.1735931
1.1736136
1.1736278
1.1736383
1.1736866
1.173669
1.1736191
1.1736082
1.1735937
1.1735727
1.1735521
1.1735737
1.1735886
1.1735997
1.1736513
1.173633
1.1735796
1.173568
1.1735527
1.1735306
1.1735087
1.1735314
1.1735472
1.1735591
1.1736145
1.1735958
1.1735382
1.1735259
1.1735096
1.1734863
1.1734633
1.1734873
1.1735041
1.1735168
1.1735766
1.1735566
1.1734945
1.1734813
1.1734641
1.1734394
1.1734131
1.1734386
1.1734565
1.1734703
1.1735353
1.1735149
1.173446
1.1734317
1.1734131
1.1733865
1.1733656
1.1733927
1.1734116
1.1734263
1.1734965
1.1734722
1.1733981
1.1733827
1.1733629
1.1733348
1.1733031
1.1733322
1.1733528
1.173369
1.1734471
1.1738644
1.1738507
1.1738643
1.1738503
1.1738243
1.1738396
1.1738467
1.1738463
1.1738398
1.1738397
1.1738196
1.1738106
1.1738397
1.1738196
1.1737938
1.1738019
1.1738134
1.1738001
1.1737784
1.1737688
1.1737905
1.1738067
1.1737863
1.1737794
1.1738021
1.1738163
1.1738089
1.1737751
1.1737832
1.1737743
1.1737879
1.1737576
1.1737725
1.1737522
1.1737373
1.1737191
1.173762
1.1737575
1.1737721
1.1737785
1.1737827
1.1737583
1.1737538
1.1737766
1.1738005
1.1738038
1.1738289
1.1738273
1.1738222
1.1738011
1.1738003
1.1738234
1.173849
1.1738175
1.1738492
1.1738283
1.1738278
1.1738303
1.1738621
1.1738714
1.1738449
1.1738349
1.1744438
1.1744748
1.1744857
1.1744994
1.1745074
1.1744882
1.1744895
1.1744902
1.1744913
1.1744987
1.1742408
1.174223
1.1742197
1.1742152
1.1742104
1.1741516
1.1741617
1.174169
1.1741739
1.174198
1.1741041
1.1740719
1.1740659
1.1740575
1.1740459
1.1739947
1.1740076
1.1740167
1.1740233
1.1740569
1.1740065
1.173971
1.173964
1.1739543
1.1739406
1.1739015
1.1739159
1.173926
1.1739333
1.1739691
1.1739347
1.1738982
1.1738906
1.1738801
1.1738651
1.1738341
1.1738496
1.1738604
1.1738682
1.1739054
1.1738788
1.1738407
1.1738327
1.1738215
1.1738055
1.1737794
1.173796
1.1738074
1.1738157
1.1738548
1.1738325
1.1737924
1.1737838
1.1737721
1.173755
1.173732
1.1737495
1.1737616
1.1737704
1.1738116
1.1737919
1.1737494
1.1737403
1.173728
1.17371
1.1736887
1.1737072
1.1737199
1.1737292
1.1737729
1.1737545
1.1737095
1.1736999
1.1736868
1.1736679
1.1736475
1.1736669
1.1736803
1.1736901
1.1737366
1.1737189
1.173671
1.1736608
1.1736471
1.1736273
1.1736071
1.1736274
1.1736415
1.1736519
1.1737014
1.1736839
1.1736328
1.1736221
1.1736076
1.1735868
1.1735663
1.1735877
1.1736025
1.1736136
1.1736664
1.1736487
1.173594
1.1735826
1.1735674
1.1735454
1.1735242
1.1735467
1.1735623
1.1735742
1.1736307
1.1736124
1.1735538
1.1735416
1.1735255
1.1735023
1.1734799
1.1735037
1.1735203
1.1735329
1.1735937
1.1735744
1.1735112
1.1734981
1.173481
1.1734565
1.1734324
1.1734576
1.1734752
1.1734888
1.1735546
1.173534
1.1734654
1.1734513
1.1734331
1.1734071
1.1733808
1.1734076
1.1734265
1.1734412
1.1735128
1.173491
1.1734161
1.1734008
1.1733812
1.1733535
1.1733243
1.1733531
1.1733734
1.1733893
1.1734678
1.1734432
1.1733607
1.1733441
1.1733229
1.1732932
1.1733246
1.1733532
1.1733734
1.1733892
1.1734673
1.1734905
1.1734152
1.1733999
1.1733804
1.1733526
1.1733781
1.173405
1.1734239
1.1734386
1.1735109
1.17353
1.1734601
1.1734458
1.1734274
1.1734012
1.1734288
1.173454
1.1734718
1.1734854
1.1735514
1.1735716
1.173508
1.1734948
1.1734776
1.1734531
1.173476
1.1734999
1.1735166
1.1735293
1.1735907
1.1736092
1.1735501
1.1735378
1.1735215
1.1734983
1.1735204
1.173543
1.1735588
1.1735707
1.1736276
1.1736454
1.1735905
1.173579
1.1735636
1.1735416
1.1735626
1.173584
1.1735989
1.17361
1.1736632
1.173681
1.1736298
1.1736189
1.1736044
1.1735835
1.1736042
1.1736246
1.1736387
1.1736492
1.1736988
1.1737159
1.1736679
1.1736577
1.1736439
1.173624
1.1736442
1.1736636
1.173677
1.1736869
1.1737334
1.1737512
1.1737062
1.1736966
1.1736835
1.1736646
1.1736852
1.1737037
1.1737164
1.1737257
1.1737694
1.1737882
1.1737457
1.1737366
1.1737242
1.1737062
1.1737279
1.1737455
1.1737575
1.1737663
1.1738076
1.173828
1.1737879
1.1737794
1.1737676
1.1737505
1.1737744
1.173791
1.1738024
1.1738107
1.1738498
1.1738732
1.1738352
1.1738271
1.173816
1.1737999
1.1738277
1.1738433
1.1738541
1.1738619
1.173899
1.1739273
1.1738909
1.1738833
1.1738728
1.1738578
1.1738927
1.1739071
1.1739171
1.1739244
1.1739601
1.1739958
1.1739605
1.1739535
1.1739438
1.1739301
1.1739805
1.1739935
1.1740026
1.1740091
1.1740425
1.174086
1.1740541
1.1740482
1.1740398
1.1740279
1.1741194
1.1741301
1.1741375
1.1741424
1.1741673
1.1742026
1.1741839
1.1741804
1.1741753
1.1741689
1.1743767
1.17438
1.1743824
1.1743847
1.1744018
1.1743576
1.1743718
1.17438
1.1743884
1.1743882
1.1740177
1.1740337
1.1740859
1.1741649
1.1745538
1.1781719
1.1797846
1.1799533
1.1800714
1.1801425
1.1732846
1.1732729
1.1732898
1.1733235
1.1736784
1.1745287
1.1745282
1.1745179
1.1745065
1.1745025
1.1740956
1.1741091
1.1741167
1.1741217
1.1741569
1.1741737
1.1741534
1.1741485
1.1741414
1.1741319
1.1740217
1.174034
1.1740424
1.1740484
1.1740794
1.1740409
1.1740097
1.1740032
1.1739942
1.1739813
1.1739298
1.1739435
1.1739531
1.1739601
1.1739936
1.1739595
1.1739256
1.1739183
1.1739083
1.173894
1.1738597
1.1738747
1.173885
1.1738925
1.1739272
1.1738997
1.1738644
1.1738566
1.173846
1.1738305
1.1738034
1.1738193
1.1738303
1.1738382
1.1738745
1.1738516
1.1738144
1.1738062
1.1737949
1.1737785
1.1737551
1.173772
1.1737836
1.173792
1.1738302
1.1738101
1.1737708
1.1737622
1.1737503
1.1737329
1.1737117
1.1737295
1.1737417
1.1737506
1.173791
1.1737726
1.1737309
1.1737218
1.1737093
1.173691
1.1736708
1.1736895
1.1737024
1.1737118
1.1737546
1.1737371
1.1736929
1.1736832
1.17367
1.1736509
1.1736312
1.1736508
1.1736643
1.1736742
1.1737198
1.1737026
1.1736555
1.1736453
1.1736314
1.1736113
1.1735914
1.173612
1.1736262
1.1736367
1.1736854
1.173668
1.1736177
1.1736069
1.1735923
1.1735711
1.1735506
1.1735723
1.1735872
1.1735985
1.1736505
1.1736327
1.1735788
1.1735672
1.1735518
1.1735295
1.173508
1.1735308
1.1735466
1.1735586
1.1736145
1.1735959
1.1735378
1.1735254
1.1735091
1.1734856
1.1734627
1.1734869
1.1735037
1.1735165
1.1735769
1.1735572
1.1734944
1.1734811
1.1734637
1.1734388
1.173414
1.1734398
1.1734577
1.1734715
1.173537
1.173516
1.1734478
1.1734334
1.1734148
1.1733882
1.1733612
1.1733887
1.1734079
1.1734229
1.1734942
1.173471
1.1733963
1.1733807
1.1733608
1.1733326
1.1733021
1.173331
1.1733516
1.1733679
1.1734466
1.1733222
1.1733509
1.1733712
1.1733872
1.1734662
1.1734896
1.1734143
1.173399
1.1733794
1.1733516
1.1733788
1.1734057
1.1734246
1.1734393
1.1735114
1.1735322
1.1734632
1.1734491
1.1734308
1.1734048
1.1734305
1.1734557
1.1734734
1.1734869
1.1735531
1.1735728
1.1735092
1.1734961
1.173479
1.1734545
1.1734776
1.1735014
1.173518
1.1735307
1.1735919
1.1736104
1.1735515
1.1735393
1.1735232
1.1735
1.1735215
1.1735441
1.1735598
1.1735716
1.1736284
1.1736442
1.1735883
1.1735766
1.1735612
1.173539
1.1735611
1.1735826
1.1735976
1.1736088
1.1736619
1.1736806
1.1736295
1.1736187
1.1736041
1.1735832
1.173606
1.1736263
1.1736403
1.1736507
1.1736996
1.1737162
1.1736681
1.1736579
1.1736441
1.1736241
1.173644
1.1736635
1.1736769
1.1736867
1.1737333
1.173751
1.1737059
1.1736963
1.1736832
1.1736643
1.1736847
1.1737032
1.1737159
1.1737252
1.173769
1.1737874
1.1737449
1.1737359
1.1737235
1.1737055
1.1737269
1.1737445
1.1737565
1.1737653
1.1738066
1.1738267
1.1737865
1.173778
1.1737662
1.1737491
1.1737726
1.1737892
1.1738007
1.173809
1.1738482
1.1738711
1.1738328
1.1738247
1.1738136
1.1737975
1.1738246
1.1738402
1.173851
1.1738589
1.1738963
1.1739238
1.1738869
1.1738793
1.1738688
1.1738537
1.1738875
1.173902
1.1739122
1.1739196
1.1739557
1.17399
1.1739542
1.1739471
1.1739373
1.1739235
1.173972
1.1739852
1.1739944
1.1740011
1.1740351
1.1740764
1.1740441
1.174038
1.1740295
1.1740174
1.1741055
1.1741164
1.174124
1.1741291
1.1741546
1.1741866
1.1741673
1.1741636
1.1741583
1.1741515
1.1743568
1.1743604
1.1743628
1.174365
1.1743816
1.1743402
1.1743562
1.1743633
1.1743702
1.174368
1.1739997
1.1740159
1.1740772
1.1741513
1.174555
1.1745456
1.173552
1.1734295
1.1733288
1.1732013
1.176801
1.1768231
1.1767797
1.1767009
1.1761225
1.1770178
1.1780589
1.1781691
1.1782112
1.1782389
1.1745429
1.1745318
1.1745185
1.1745083
1.1744622
1.1745379
1.1745254
1.1745246
1.1745244
1.1745247
1.1742324
1.1742371
1.1742413
1.1742442
1.1742594
1.1742134
1.1741906
1.1741859
1.1741791
1.1741693
1.1740592
1.1740707
1.1740788
1.1740845
1.1741152
1.1740652
1.1740326
1.1740262
1.1740173
1.1740046
1.1739481
1.1739616
1.1739711
1.1739781
1.1740127
1.1739738
1.1739386
1.1739314
1.1739214
1.1739072
1.1738696
1.1738844
1.1738948
1.1739023
1.1739384
1.1739083
1.1738715
1.1738637
1.173853
1.1738375
1.1738083
1.1738243
1.1738353
1.1738434
1.1738811
1.1738566
1.1738178
1.1738096
1.1737982
1.1737816
1.1737568
1.1737738
1.1737855
1.173794
1.1738339
1.1738128
1.1737718
1.173763
1.1737509
1.1737334
1.1737112
1.1737291
1.1737415
1.1737505
1.1737928
1.1737736
1.1737301
1.1737208
1.1737081
1.1736896
1.1736687
1.1736876
1.1737006
1.1737102
1.1737551
1.173737
1.1736907
1.1736809
1.1736675
1.1736481
1.1736278
1.1736476
1.1736613
1.1736715
1.1737193
1.1737017
1.1736523
1.1736418
1.1736278
1.1736074
1.1735871
1.1736079
1.1736224
1.1736331
1.1736841
1.1736665
1.1736138
1.1736027
1.1735879
1.1735665
1.1735456
1.1735675
1.1735828
1.1735942
1.1736487
1.1736307
1.1735742
1.1735624
1.1735468
1.1735243
1.1735025
1.1735255
1.1735416
1.1735538
1.1736123
1.1735936
1.1735328
1.1735202
1.1735036
1.1734799
1.1734568
1.1734812
1.1734982
1.1735113
1.1735743
1.1735545
1.1734888
1.1734753
1.1734577
1.1734326
1.1734074
1.1734333
1.1734515
1.1734656
1.173534
1.173513
1.1734416
1.173427
1.1734081
1.1733813
1.1733541
1.1733819
1.1734014
1.1734166
1.1734913
1.1734683
1.17339
1.1733741
1.1733538
1.1733252
1.1732939
1.1733236
1.1733447
1.1733613
1.1734437
1.1734476
1.1733423
1.1733239
1.1733006
1.1732685
1.1733012
1.1733321
1.1733545
1.1733721
1.1734721
1.1734951
1.1733999
1.173383
1.1733615
1.1733317
1.1733596
1.1733883
1.173409
1.1734252
1.1735163
1.173537
1.1734499
1.1734343
1.1734144
1.1733866
1.1734129
1.1734398
1.173459
1.173474
1.1735575
1.1735773
1.1734971
1.1734826
1.173464
1.1734379
1.173462
1.1734873
1.1735054
1.1735193
1.1735965
1.1736152
1.1735408
1.1735273
1.1735098
1.1734852
1.1735078
1.1735317
1.1735487
1.1735617
1.1736335
1.1736514
1.1735822
1.1735696
1.173553
1.1735297
1.1735511
1.1735738
1.1735899
1.1736021
1.1736691
1.1736866
1.1736218
1.17361
1.1735943
1.1735722
1.1735931
1.1736146
1.1736299
1.1736414
1.1737041
1.1737217
1.1736609
1.1736497
1.1736349
1.1736139
1.1736347
1.1736552
1.1736697
1.1736805
1.1737395
1.1737576
1.1737004
1.1736899
1.1736757
1.1736558
1.1736773
1.1736967
1.1737105
1.1737207
1.1737762
1.1737955
1.1737416
1.1737316
1.1737182
1.1736993
1.1737221
1.1737406
1.1737536
1.1737633
1.1738157
1.173837
1.1737861
1.1737767
1.173764
1.173746
1.1737715
1.1737889
1.1738013
1.1738104
1.17386
1.1738849
1.1738366
1.1738277
1.1738157
1.1737988
1.1738289
1.1738452
1.1738568
1.1738654
1.1739126
1.1739435
1.1738971
1.1738888
1.1738775
1.1738618
1.1739004
1.1739156
1.1739264
1.1739345
1.1739799
1.17402
1.173975
1.1739672
1.1739567
1.1739423
1.1740004
1.174014
1.1740239
1.1740311
1.174074
1.1741246
1.1740828
1.174076
1.1740668
1.1740543
1.1741682
1.174179
1.174187
1.1741927
1.1742263
1.1742536
1.1742197
1.1742149
1.1742084
1.174199
1.174485
1.1744892
1.1744977
1.1745067
1.174558
1.1741437
1.1740846
1.174084
1.174087
1.1740893
1.174408
1.1732293
1.1731141
1.1730005
1.1728755
1.1743046
1.1743135
1.1743149
1.1743099
1.1742496
1.1744043
1.174336
1.1743278
1.1743196
1.1743096
1.1741612
1.1741689
1.1741753
1.1741798
1.1742031
1.174181
1.1741482
1.1741423
1.1741339
1.174122
1.1740259
1.1740385
1.1740478
1.1740545
1.1740938
1.1740503
1.1740086
1.1740012
1.1739912
1.1739774
1.173925
1.1739395
1.17395
1.1739578
1.1740019
1.1739659
1.173921
1.1739129
1.173902
1.1738868
1.1738511
1.1738668
1.1738782
1.1738865
1.1739325
1.173904
1.1738571
1.1738484
1.1738367
1.1738204
1.173792
1.1738089
1.173821
1.1738299
1.173878
1.1738545
1.173805
1.1737959
1.1737835
1.173766
1.1737417
1.1737596
1.1737723
1.1737817
1.1738326
1.1738121
1.1737598
1.1737501
1.173737
1.1737186
1.1736964
1.1737154
1.1737288
1.1737388
1.1737926
1.1737739
1.1737184
1.1737082
1.1736944
1.173675
1.173654
1.1736739
1.173688
1.1736986
1.1737558
1.173738
1.1736791
1.1736682
1.1736537
1.1736333
1.1736127
1.1736337
1.1736485
1.1736597
1.1737205
1.1737032
1.1736404
1.1736288
1.1736136
1.1735921
1.1735714
1.1735934
1.1736091
1.173621
1.1736858
1.1736684
1.1736014
1.1735891
1.173573
1.1735504
1.1735291
1.1735523
1.1735689
1.1735815
1.1736508
1.173633
1.1735612
1.1735481
1.1735311
1.1735073
1.1734849
1.1735094
1.1735269
1.1735403
1.1736148
1.1735962
1.173519
1.173505
1.173487
1.1734618
1.1734379
1.1734638
1.1734824
1.1734969
1.1735771
1.1735574
1.1734739
1.173459
1.1734397
1.1734129
1.1733869
1.1734146
1.1734345
1.1734501
1.1735371
1.1735162
1.1734253
1.1734091
1.1733884
1.1733598
1.1733313
1.173361
1.1733825
1.1733993
1.1734944
1.1734714
1.1733717
1.1733541
1.1733318
1.173301
1.1732684
1.1733004
1.1733236
1.1733421
1.1734471
1.1733012